<VTKFile type="UnstructuredGrid" version="0.1" byte_order="LittleEndian">
<UnstructuredGrid>
<Piece NumberOfPoints="191" NumberOfCells="79">
<Points>
<DataArray type="Float64" NumberOfComponents="3" format="ascii">
 1.01727426e+00  5.11621332e+00  1.94730914e+00
 2.03012633e+00  5.11160707e+00  1.96026003e+00
 2.02998495e+00  6.13909245e+00  1.93991113e+00
 1.01379812e+00  6.13490629e+00  1.93223524e+00
 1.01398838e+00  5.13322973e+00  2.92060137e+00
 2.03312206e+00  5.13341045e+00  2.92262292e+00
 2.02692413e+00  6.16970825e+00  2.89691901e+00
 1.01493001e+00  6.15110207e+00  2.90524578e+00
 3.05348754e+00  5.10366869e+00  1.96791875e+00
 3.05801797e+00  6.13540316e+00  1.94045937e+00
 3.05665207e+00  5.12714243e+00  2.91273355e+00
 3.08275914e+00  6.16536331e+00  2.85889006e+00
 5.05347633e+00  5.10576344e+00  2.00001669e+00
 6.05347919e+00  5.10893488e+00  1.99999881e+00
 6.05029631e+00  6.10894394e+00  1.99999535e+00
 5.05027628e+00  6.10577059e+00  1.99999344e+00
 5.05348587e+00  5.10578060e+00  3.00000453e+00
 6.05347300e+00  5.10896587e+00  3.00000715e+00
 6.05029154e+00  6.10895109e+00  2.99998474e+00
 5.05031013e+00  6.10576630e+00  3.00000334e+00
 0.00000000e+00  0.00000000e+00  2.86196113e+00
 1.02601874e+00  0.00000000e+00  2.86033058e+00
 1.02669454e+00  1.02791762e+00  2.86547971e+00
 0.00000000e+00  1.02721167e+00  2.86924791e+00
 0.00000000e+00  0.00000000e+00  3.81470704e+00
 1.03596056e+00  0.00000000e+00  3.81436706e+00
 1.03663874e+00  1.02694011e+00  3.81643605e+00
 0.00000000e+00  1.02554119e+00  3.82125068e+00
 2.05732036e+00  0.00000000e+00  2.85059786e+00
 2.05055189e+00  1.02239323e+00  2.85790873e+00
 2.06954074e+00  0.00000000e+00  3.80841255e+00
 2.07121658e+00  1.02810848e+00  3.80771041e+00
 3.08530617e+00  0.00000000e+00  2.84018350e+00
 3.08580470e+00  1.01843393e+00  2.84282684e+00
 3.10309076e+00  0.00000000e+00  3.79759026e+00
 3.10031152e+00  1.02474606e+00  3.79739618e+00
 4.11910963e+00  0.00000000e+00  2.83045602e+00
 4.12050247e+00  1.01962304e+00  2.82677436e+00
 4.13154459e+00  0.00000000e+00  3.78881288e+00
 4.13062477e+00  1.02000332e+00  3.78371882e+00
 5.15263414e+00  0.00000000e+00  2.81758809e+00
 5.15401506e+00  1.02155983e+00  2.81993580e+00
 5.15778637e+00  0.00000000e+00  3.78346896e+00
 5.15790367e+00  1.01816821e+00  3.77432656e+00
 6.18224764e+00  0.00000000e+00  2.81212974e+00
 6.18393183e+00  1.02020395e+00  2.81502581e+00
 6.17796659e+00  0.00000000e+00  3.78157187e+00
 6.18525362e+00  1.01643264e+00  3.77430916e+00
 1.01763296e+00  2.05187511e+00  2.88054228e+00
 0.00000000e+00  2.05992723e+00  2.88274884e+00
 1.03628206e+00  2.05594182e+00  3.83403611e+00
 0.00000000e+00  2.05630708e+00  3.83585835e+00
 2.04781079e+00  2.05131984e+00  2.86282063e+00
 2.07608342e+00  2.05840087e+00  3.81243443e+00
 3.07931209e+00  2.05616665e+00  2.83426237e+00
 3.10501623e+00  2.05414724e+00  3.77381039e+00
 4.12008047e+00  2.06297088e+00  2.82872152e+00
 4.12606668e+00  2.04621220e+00  3.76268315e+00
 5.15563679e+00  2.05693316e+00  2.82771897e+00
 5.15782404e+00  2.05233407e+00  3.76536584e+00
 6.18583632e+00  2.05536890e+00  2.82440901e+00
 6.18795490e+00  2.04997778e+00  3.76510501e+00
 1.01325679e+00  3.08998299e+00  2.90887260e+00
 0.00000000e+00  3.08803678e+00  2.90443039e+00
 1.03214788e+00  3.08845592e+00  3.85477710e+00
 0.00000000e+00  3.08634496e+00  3.86666036e+00
 2.04254675e+00  3.07914329e+00  2.88583517e+00
 2.08510971e+00  3.09241509e+00  3.80388594e+00
 3.03636074e+00  3.06945324e+00  2.71022224e+00
 3.12380433e+00  3.07878590e+00  3.73983002e+00
 1.01257598e+00  4.10972548e+00  2.92485428e+00
 0.00000000e+00  4.11407757e+00  2.92312837e+00
 1.02287579e+00  4.12111616e+00  3.89458799e+00
 0.00000000e+00  4.12304878e+00  3.88704205e+00
 0.00000000e+00  5.12924480e+00  2.91962838e+00
 1.02273536e+00  5.15446615e+00  3.88834310e+00
 0.00000000e+00  5.14504337e+00  3.88123894e+00
 2.03343725e+00  4.10994720e+00  2.94568634e+00
 2.05869007e+00  4.12782955e+00  3.87432861e+00
 2.05821419e+00  5.14744425e+00  3.88244367e+00
 0.00000000e+00  6.15204287e+00  2.89762950e+00
 1.03313839e+00  6.18712997e+00  3.84515429e+00
 0.00000000e+00  6.19428873e+00  3.85629272e+00
 2.06017804e+00  6.19847107e+00  3.84000921e+00
 3.08403826e+00  5.13380337e+00  3.79730177e+00
 3.12773061e+00  6.15914774e+00  3.80424476e+00
 0.00000000e+00  0.00000000e+00  4.76138926e+00
 1.04533935e+00  0.00000000e+00  4.75906992e+00
 1.04783666e+00  1.02795160e+00  4.76224518e+00
 0.00000000e+00  1.02591503e+00  4.76366138e+00
 2.08303928e+00  0.00000000e+00  4.75611305e+00
 2.08877635e+00  1.03305674e+00  4.75584459e+00
 3.11366677e+00  0.00000000e+00  4.75157070e+00
 3.11743450e+00  1.03508866e+00  4.74902487e+00
 4.13961744e+00  0.00000000e+00  4.74535847e+00
 4.13767147e+00  1.03165364e+00  4.74386168e+00
 5.16077471e+00  0.00000000e+00  4.74340296e+00
 5.15764523e+00  1.02733791e+00  4.73987198e+00
 6.17810917e+00  0.00000000e+00  4.74320316e+00
 6.17902946e+00  1.02888823e+00  4.74134588e+00
 1.05639195e+00  2.06158590e+00  4.76658344e+00
 0.00000000e+00  2.05503106e+00  4.77370024e+00
 2.10046911e+00  2.06802320e+00  4.75323772e+00
 3.12773514e+00  2.06649160e+00  4.73598576e+00
 4.14240503e+00  2.05887246e+00  4.72269535e+00
 5.15267515e+00  2.05024743e+00  4.71454716e+00
 6.16498375e+00  2.05113268e+00  4.71538544e+00
 1.05837357e+00  3.08376265e+00  4.79555178e+00
 0.00000000e+00  3.09514737e+00  4.80948639e+00
 2.11401033e+00  3.08700466e+00  4.74735832e+00
 3.14696479e+00  3.08151340e+00  4.71074057e+00
 4.13610315e+00  3.03581309e+00  3.67586660e+00
 4.15583515e+00  3.07143784e+00  4.70071983e+00
 1.06065381e+00  4.11575747e+00  4.84587526e+00
 0.00000000e+00  4.10597706e+00  4.82294273e+00
 2.12535858e+00  4.11317587e+00  4.76496315e+00
 1.05145824e+00  5.17754698e+00  4.80212736e+00
 0.00000000e+00  5.18107224e+00  4.80341959e+00
 1.06051743e+00  6.23895693e+00  4.78075695e+00
 0.00000000e+00  6.23652315e+00  4.78912354e+00
 2.09212017e+00  5.15997696e+00  4.79539490e+00
 2.13841438e+00  6.20576429e+00  4.77940893e+00
 3.13873363e+00  5.11414719e+00  4.72503471e+00
 3.19324589e+00  6.12996149e+00  4.74229527e+00
 4.05334568e+00  5.09720182e+00  3.63618398e+00
 4.12123537e+00  6.09967566e+00  3.68088126e+00
 4.17617464e+00  5.07174969e+00  4.69969940e+00
 4.18791962e+00  6.07319069e+00  4.70009470e+00
 5.17664289e+00  5.06152773e+00  3.69981861e+00
 6.17657804e+00  5.05110264e+00  3.69981790e+00
 6.18699980e+00  6.05105639e+00  3.69984889e+00
 5.18701887e+00  6.06151152e+00  3.69989967e+00
 5.17659807e+00  5.06151247e+00  4.69981289e+00
 6.17660618e+00  5.05108500e+00  4.69984198e+00
 6.18699074e+00  6.05103588e+00  4.69983768e+00
 5.18712711e+00  6.06136942e+00  4.69990015e+00
 0.00000000e+00  0.00000000e+00  5.69985485e+00
 1.04847991e+00  0.00000000e+00  5.69985485e+00
 1.05333519e+00  1.03112245e+00  5.69985485e+00
 0.00000000e+00  1.02720201e+00  5.69985485e+00
 2.08974743e+00  0.00000000e+00  5.69985485e+00
 2.09373522e+00  1.03675616e+00  5.69985485e+00
 3.11818933e+00  0.00000000e+00  5.69985485e+00
 3.12384629e+00  1.03959000e+00  5.69985485e+00
 4.14086342e+00  0.00000000e+00  5.69985485e+00
 4.14272404e+00  1.03954923e+00  5.69985485e+00
 5.16142750e+00  0.00000000e+00  5.69985485e+00
 5.15833855e+00  1.03606045e+00  5.69985485e+00
 6.18274641e+00  0.00000000e+00  5.69985485e+00
 6.17142248e+00  1.04094636e+00  5.69985485e+00
 1.06568098e+00  2.05516887e+00  5.69985485e+00
 0.00000000e+00  2.05162477e+00  5.69985485e+00
 2.11304545e+00  2.06802630e+00  5.69985485e+00
 3.13574648e+00  2.07228541e+00  5.69985485e+00
 4.14936209e+00  2.06643057e+00  5.69985485e+00
 5.15199184e+00  2.05845857e+00  5.69985485e+00
 6.15784740e+00  2.05612421e+00  5.69985485e+00
 1.07549655e+00  3.11201239e+00  5.69985485e+00
 0.00000000e+00  3.11762500e+00  5.69985485e+00
 2.13266993e+00  3.09568143e+00  5.69985485e+00
 3.15572166e+00  3.08586454e+00  5.69985485e+00
 4.15619373e+00  3.07221007e+00  5.69985485e+00
 5.15622854e+00  3.06085443e+00  4.69929409e+00
 5.15670156e+00  3.06133437e+00  5.69985485e+00
 6.15761709e+00  3.05264020e+00  4.69883156e+00
 6.15788078e+00  3.05405760e+00  5.69985485e+00
 3.16648936e+00  4.08308125e+00  4.69263506e+00
 3.17042017e+00  4.08753109e+00  5.69985485e+00
 2.16684008e+00  4.10778570e+00  5.69985485e+00
 4.16644049e+00  4.07137156e+00  4.70007896e+00
 4.16658497e+00  4.07161188e+00  5.69985485e+00
 5.16626501e+00  4.06160355e+00  4.69981289e+00
 5.16634464e+00  4.06149960e+00  5.69985485e+00
 6.16614151e+00  4.05144787e+00  4.69985104e+00
 6.16605711e+00  4.05127001e+00  5.69985485e+00
 0.00000000e+00  4.08655119e+00  5.69985485e+00
 1.08931255e+00  4.10198259e+00  5.69985485e+00
 1.07199121e+00  5.19661522e+00  5.69985485e+00
 0.00000000e+00  5.20395803e+00  5.69985485e+00
 5.17654991e+00  5.06150675e+00  5.69985485e+00
 4.17662477e+00  5.07180738e+00  5.69985485e+00
 6.17663336e+00  5.05110741e+00  5.69985485e+00
 1.07687485e+00  6.25139999e+00  5.69985485e+00
 0.00000000e+00  6.25210476e+00  5.69985485e+00
 2.11428380e+00  5.16462278e+00  5.69985485e+00
 2.16894698e+00  6.20292807e+00  5.69985485e+00
 3.15109587e+00  5.10185385e+00  5.69985485e+00
 3.20414639e+00  6.12115288e+00  5.69985485e+00
 4.18835497e+00  6.07234859e+00  5.69985485e+00
 5.18714762e+00  6.06130791e+00  5.69985485e+00
 6.18698168e+00  6.05103779e+00  5.69985485e+00
</DataArray>
</Points>
<PointData Tensors="Stress_Components,Plastic_strain_components" Vevtors="Spatial_displacement,Reaction_force" Scalars="Equivalent_plastic_strain,Stress_Mises,Stress_Max_Principal,Stress_Mid_Principal,Stress_Min_Principal,Stress_Pressure,Stress_Tresca,Stress_Third_Invariant,Plastic_strain_Max_Principal,Plastic_strain_Min_Principal">
<DataArray type="Float32" Name="Stress_Components" NumberOfComponents="9" format="ascii">
9.97670062e+00 -4.94923389e-01 3.77751373e-01 -4.94923389e-01 7.69528764e+00 4.00837715e-01 3.77751373e-01 4.00837715e-01 -1.03921575e+01
-1.48570299e-01 -2.48826072e+00 6.56667702e-01 -2.48826072e+00 -3.73337865e-01 2.35612509e+00 6.56667702e-01 2.35612509e+00 -2.86371360e+01
-3.78523684e+00 3.37318540e-01 1.06244313e+00 3.37318540e-01 1.35924697e+00 -1.13590929e+00 1.06244313e+00 -1.13590929e+00 -3.22759085e+01
9.27174330e-01 -4.31728540e-01 -4.54162654e-01 -4.31728540e-01 1.99002719e+00 -2.66402647e-01 -4.54162654e-01 -2.66402647e-01 -2.69779358e+01
1.64749326e+01 2.26341520e-01 1.34456212e+00 2.26341520e-01 1.77929437e+01 -3.46652914e-01 1.34456212e+00 -3.46652914e-01 7.18472457e+00
1.79666281e+01 -1.35958521e+00 1.83683992e+00 -1.35958521e+00 2.03769282e+01 1.41779331e+00 1.83683992e+00 1.41779331e+00 9.17212159e+00
-1.57035322e+01 3.31611931e-02 6.72291540e-01 3.31611931e-02 -5.60076785e+00 -4.28767756e-01 6.72291540e-01 -4.28767756e-01 -5.11239150e+01
5.42747092e+00 7.34315325e-01 6.80213232e-01 7.34315325e-01 5.86983567e+00 1.88597037e+00 6.80213232e-01 1.88597037e+00 -1.74842205e+01
-1.10487509e+01 -3.80626097e-01 -1.67790364e+00 -3.80626097e-01 -1.07899592e+01 4.93068954e+00 -1.67790364e+00 4.93068954e+00 -5.40365138e+01
-6.16709518e+01 -1.26282197e+00 -2.10487014e+00 -1.26282197e+00 -5.66044769e+01 4.64347875e+00 -2.10487014e+00 4.64347875e+00 -1.58619011e+02
-5.77835251e+01 5.92705178e+00 -2.16892652e+01 5.92705178e+00 -5.96031581e+01 -3.02152995e+00 -2.16892652e+01 -3.02152995e+00 -1.47474445e+02
-4.15545582e+01 1.87301588e+00 -7.08116817e+00 1.87301588e+00 -5.97309399e+01 -1.72794044e+00 -7.08116817e+00 -1.72794044e+00 -1.37123779e+02
-3.63094211e-02 -5.89330435e-01 -1.34158753e-01 -5.89330435e-01 1.50039978e-01 7.75294006e-02 -1.34158753e-01 7.75294006e-02 -5.36464214e-01
-3.05485126e-01 -2.29626372e-01 -1.67029023e-01 -2.29626372e-01 -3.81125957e-02 -1.13015532e-01 -1.67029023e-01 -1.13015532e-01 -7.91281154e-02
5.02794176e-01 -1.89079501e-01 4.24214350e-02 -1.89079501e-01 5.07290885e-02 4.21053715e-01 4.24214350e-02 4.21053715e-01 -9.76244807e-01
2.73739392e-01 -5.48868507e-01 -3.81603241e-02 -5.48868507e-01 -2.59381585e-01 -4.15571570e-01 -3.81603241e-02 -4.15571570e-01 -4.37164336e-01
1.77021027e-01 1.97072774e-01 3.38762611e-01 1.97072774e-01 1.18597828e-01 2.57144481e-01 3.38762611e-01 2.57144481e-01 -4.82635107e-03
-1.03626251e-01 8.17031711e-02 1.76859066e-01 8.17031711e-02 -1.87607810e-01 -7.03176260e-02 1.76859066e-01 -7.03176260e-02 5.82122207e-01
8.47538095e-03 6.88904598e-02 -3.30154747e-01 6.88904598e-02 1.55291289e-01 -4.92142648e-01 -3.30154747e-01 -4.92142648e-01 1.27058759e-01
-2.86062986e-01 1.84294134e-01 -1.16432115e-01 1.84294134e-01 -1.13753021e-01 3.10609460e-01 -1.16432115e-01 3.10609460e-01 6.90582812e-01
-1.94928169e-01 1.64095741e-02 6.76525056e-01 1.64095741e-02 4.31828499e-01 -1.54846560e-01 6.76525056e-01 -1.54846560e-01 -2.97634096e+01
2.60995422e-01 3.16971868e-01 4.21513923e-01 3.16971868e-01 1.45759553e-01 3.69300976e-01 4.21513923e-01 3.69300976e-01 -2.95292420e+01
2.89076950e+00 -7.16323860e-01 7.38327300e-01 -7.16323860e-01 3.50233278e+00 5.02121705e-01 7.38327300e-01 5.02121705e-01 -2.29602939e+01
-1.80048048e-01 1.87734185e-01 8.03238258e-01 1.87734185e-01 1.35165524e+00 -4.38239388e-01 8.03238258e-01 -4.38239388e-01 -2.86849756e+01
4.50916815e+00 -1.97488964e-02 9.93608057e-01 -1.97488964e-02 2.50857091e+00 1.10967677e-01 9.93608057e-01 1.10967677e-01 -2.23149757e+01
6.33662015e-01 1.88585270e-01 2.53854487e-01 1.88585270e-01 -6.26622528e-01 1.14856994e+00 2.53854487e-01 1.14856994e+00 -2.98764520e+01
2.43654725e+00 3.29053149e-01 9.48057268e-01 3.29053149e-01 1.00254771e+00 5.87340995e-01 9.48057268e-01 5.87340995e-01 -2.61714997e+01
2.70869225e-01 4.02128659e-01 1.17852187e+00 4.02128659e-01 -1.91104692e+00 -7.23328508e-01 1.17852187e+00 -7.23328508e-01 -3.16147119e+01
4.21601564e+00 -1.05979052e+00 4.01591986e-01 -1.05979052e+00 2.59463853e+00 1.37227444e-01 4.01591986e-01 1.37227444e-01 -2.25576102e+01
5.07115268e+00 -1.00904215e+00 1.14225263e+00 -1.00904215e+00 4.41285401e+00 9.23942368e-01 1.14225263e+00 9.23942368e-01 -1.93610930e+01
1.24344381e+00 1.64022977e-01 1.18661514e-01 1.64022977e-01 4.88535702e-01 6.44300990e-01 1.18661514e-01 6.44300990e-01 -2.81391582e+01
-1.16089454e+00 1.20147835e-01 1.29609631e+00 1.20147835e-01 -7.90425777e-01 1.91917632e+00 1.29609631e+00 1.91917632e+00 -3.18450418e+01
6.43201625e+00 1.55531213e-01 8.91927816e-02 1.55531213e-01 4.00398010e+00 6.90522950e-01 8.91927816e-02 6.90522950e-01 -1.85332321e+01
8.95401376e+00 -2.78884880e-01 3.10862996e-03 -2.78884880e-01 6.58789912e+00 -3.77091467e-02 3.10862996e-03 -3.77091467e-02 -1.30422781e+01
3.35429162e+00 -6.43342599e-01 1.96321413e-01 -6.43342599e-01 1.78062515e+00 9.73533828e-01 1.96321413e-01 9.73533828e-01 -2.43537421e+01
1.17614104e+00 -7.69673143e-01 1.26776531e-01 -7.69673143e-01 7.61963993e-01 8.21480822e-01 1.26776531e-01 8.21480822e-01 -2.77463489e+01
8.81677550e+00 2.74914443e-01 -2.16257384e-01 2.74914443e-01 5.76881018e+00 2.36027829e-01 -2.16257384e-01 2.36027829e-01 -1.39928041e+01
2.34262800e+00 2.69743281e-01 -8.03076621e-01 2.69743281e-01 -1.84678912e-01 8.83530416e-02 -8.03076621e-01 8.83530416e-02 -2.74486939e+01
4.48192191e+00 -3.20751607e-01 -5.44091091e-01 -3.20751607e-01 1.95362788e+00 6.70453429e-01 -5.44091091e-01 6.70453429e-01 -2.29555132e+01
1.01979527e+01 -7.21391890e-01 -8.75775367e-02 -7.21391890e-01 8.50592679e+00 -4.39137526e-01 -8.75775367e-02 -4.39137526e-01 -9.73742840e+00
1.19811282e+01 -5.42982146e-02 1.46697823e-01 -5.42982146e-02 9.51901388e+00 -2.48974115e-01 1.46697823e-01 -2.48974115e-01 -6.58692539e+00
6.02525842e+00 4.64401990e-02 -3.40142342e-01 4.64401990e-02 3.57183301e+00 3.90210487e-02 -3.40142342e-01 3.90210487e-02 -1.94852813e+01
1.10621663e+01 -2.26128248e-02 -6.21040143e-01 -2.26128248e-02 1.02299411e+01 -2.77059982e-01 -6.21040143e-01 -2.77059982e-01 -6.98786521e+00
6.13098361e+00 -2.62855373e-01 -6.69958721e-01 -2.62855373e-01 4.69726855e+00 -5.13153357e-01 -6.69958721e-01 -5.13153357e-01 -1.80964291e+01
1.65485072e+01 -1.56058490e-01 1.31505422e-01 -1.56058490e-01 1.51473269e+01 -5.26584268e-01 1.31505422e-01 -5.26584268e-01 4.48608398e+00
1.46795863e+01 -1.62035480e-01 -4.77574579e-01 -1.62035480e-01 1.28667660e+01 -2.01065091e-01 -4.77574579e-01 -2.01065091e-01 -1.34830475e-01
1.64839499e+01 8.17194812e-01 -2.46865682e-01 8.17194812e-01 1.66053040e+01 -8.25602770e-01 -2.46865682e-01 -8.25602770e-01 5.83232212e+00
1.16439437e+01 5.15152846e-01 -2.33445913e-02 5.15152846e-01 1.01627667e+01 -7.90856369e-01 -2.33445913e-02 -7.90856369e-01 -6.17512333e+00
1.96782303e+00 -1.32442125e+00 2.22774643e+00 -1.32442125e+00 5.07312536e+00 1.97561856e-01 2.22774643e+00 1.97561856e-01 -2.13159136e+01
1.19907522e+00 -1.25001243e+00 1.76730102e+00 -1.25001243e+00 5.56243108e+00 -3.62957869e-01 1.76730102e+00 -3.62957869e-01 -2.20426505e+01
-4.78458987e+00 2.70895356e-01 3.53449731e+00 2.70895356e-01 -6.68676486e+00 2.03263102e+00 3.53449731e+00 2.03263102e+00 -4.15044942e+01
5.50672531e-01 -1.09723360e-01 1.70475123e+00 -1.09723360e-01 2.85486460e-01 -1.63408214e-01 1.70475123e+00 -1.63408214e-01 -2.89782899e+01
8.16768440e+00 9.93059539e-01 3.22013295e+00 9.93059539e-01 6.64695482e+00 2.01511928e+00 3.22013295e+00 2.01511928e+00 -1.79301744e+01
-3.45341370e+00 1.08839707e+00 6.94348904e-01 1.08839707e+00 -3.51598680e+00 -2.81462356e-01 6.94348904e-01 -2.81462356e-01 -3.66690611e+01
-5.42916603e+01 -3.34625435e+00 -1.17557212e+01 -3.34625435e+00 -5.45699490e+01 -1.53882331e+00 -1.17557212e+01 -1.53882331e+00 -1.37889517e+02
5.81758264e+00 1.08380667e+00 -1.82126688e+00 1.08380667e+00 8.46470410e+00 1.05389547e+00 -1.82126688e+00 1.05389547e+00 -1.65658583e+01
-3.84183946e+01 -6.02545612e-01 -3.85681182e+00 -6.02545612e-01 -3.46744633e+01 1.87573519e+00 -3.85681182e+00 1.87573519e+00 -1.08548510e+02
-2.33252682e+01 -1.11010617e+00 -1.33541586e+01 -1.11010617e+00 -2.86053263e+01 6.65064836e-01 -1.33541586e+01 6.65064836e-01 -7.39225021e+01
-2.40028896e+01 -6.76421724e-01 -1.28869772e-01 -6.76421724e-01 -2.14089513e+01 1.71611030e+00 -1.28869772e-01 1.71611030e+00 -7.90280609e+01
-3.20365081e+01 2.19770501e-01 -4.42401946e+00 2.19770501e-01 -2.78488579e+01 -9.40106012e-01 -4.42401946e+00 -9.40106012e-01 -9.42969437e+01
-1.40408704e+01 -6.39856726e-01 -5.61671317e-01 -6.39856726e-01 -8.86878550e+00 3.71870339e-01 -5.61671317e-01 3.71870339e-01 -5.45189342e+01
-3.07198524e+01 -1.78669327e+00 -4.66132045e+00 -1.78669327e+00 -2.36990914e+01 -3.81165596e+00 -4.66132045e+00 -3.81165596e+00 -8.69899101e+01
-2.30773255e+00 -4.35135108e-01 4.17321147e+00 -4.35135108e-01 1.75922390e+00 8.68153421e-01 4.17321147e+00 8.68153421e-01 -2.87897504e+01
9.77800441e+00 4.09617722e-01 1.95253163e+00 4.09617722e-01 1.25771446e+01 -4.91703623e-01 1.95253163e+00 -4.91703623e-01 -5.27622771e+00
-4.79056158e+00 -5.25226333e-01 4.18887545e+00 -5.25226333e-01 -5.61747074e+00 1.08327934e+00 4.18887545e+00 1.08327934e+00 -3.98049126e+01
7.87547970e+00 1.40104542e-01 2.06431100e+00 1.40104542e-01 9.45489490e+00 -2.62774520e-01 2.06431100e+00 -2.62774520e-01 -1.10148909e+01
-7.72670746e+01 -8.85408747e+00 1.16549434e+01 -8.85408747e+00 -7.02233934e+01 -1.35768062e+01 1.16549434e+01 -1.35768062e+01 -1.71744806e+02
-1.93743480e+01 2.05058081e+00 1.29463119e+00 2.05058081e+00 -2.54677850e+01 -3.80134287e+00 1.29463119e+00 -3.80134287e+00 -7.83735704e+01
2.55253773e+01 -3.60135269e+00 -1.29530783e+01 -3.60135269e+00 2.63113537e+01 -1.14784706e+00 -1.29530783e+01 -1.14784706e+00 6.28826180e+01
1.11727031e+01 -2.44686683e+00 -5.25440296e+00 -2.44686683e+00 1.10978540e+01 -4.91701921e+00 -5.25440296e+00 -4.91701921e+00 -3.36521816e+00
1.53815149e+01 -1.19672416e-01 -6.52576072e-01 -1.19672416e-01 1.66413198e+01 8.79642086e-01 -6.52576072e-01 8.79642086e-01 4.30607966e+00
1.01842158e+01 -6.32965494e-01 1.89344185e+00 -6.32965494e-01 1.20028538e+01 4.65656854e-01 1.89344185e+00 4.65656854e-01 -5.16723818e+00
2.05878340e+01 -4.46423817e-01 3.83626213e-01 -4.46423817e-01 2.31692237e+01 1.31758747e+00 3.83626213e-01 1.31758747e+00 1.84439173e+01
1.21848843e+01 -6.29804462e-01 2.02662685e+00 -6.29804462e-01 1.34896451e+01 1.09388025e+00 2.02662685e+00 1.09388025e+00 -1.79330564e+00
1.16959474e+01 2.41317209e-01 2.55526863e-02 2.41317209e-01 1.26567523e+01 6.24252731e-01 2.55526863e-02 6.24252731e-01 -3.50063539e+00
9.27834905e+00 8.45706280e-01 4.78591962e-01 8.45706280e-01 1.05136967e+01 1.60610688e+00 4.78591962e-01 1.60610688e+00 -8.06945491e+00
9.20170379e+00 1.44500912e+00 9.62259620e-02 1.44500912e+00 1.16762719e+01 5.75216487e-01 9.62259620e-02 5.75216487e-01 -7.11404133e+00
-3.38765598e+01 7.02987021e-01 5.25163186e+00 7.02987021e-01 -3.09787145e+01 1.51755890e+01 5.25163186e+00 1.51755890e+01 -8.76341224e+01
-7.95586433e+01 -3.06768078e+00 1.47660451e+01 -3.06768078e+00 -8.22610817e+01 7.86159015e+00 1.47660451e+01 7.86159015e+00 -2.01534897e+02
-9.81063223e+00 -2.89997580e+00 -2.82488041e+00 -2.89997580e+00 -3.61225739e+00 2.94798660e+00 -2.82488041e+00 2.94798660e+00 -4.23903221e+01
-1.31489372e+00 -2.22195312e-01 1.03638917e-01 -2.22195312e-01 1.67047691e+00 1.16221325e+00 1.03638917e-01 1.16221325e+00 -2.94695005e+01
1.00081921e+01 1.10613378e+00 -7.06266806e-01 1.10613378e+00 9.62943459e+00 6.80289805e-01 -7.06266806e-01 6.80289805e-01 -9.07512856e+00
-2.98296928e+00 -1.58447243e+00 2.44639724e+00 -1.58447243e+00 1.85506821e+00 -6.03065372e-01 2.44639724e+00 -6.03065372e-01 -3.08297558e+01
-1.64071233e+01 -3.00762445e+00 -3.73452498e+00 -3.00762445e+00 -1.29873161e+01 4.93779239e+00 -3.73452498e+00 4.93779239e+00 -5.78639436e+01
-6.93719788e+01 8.17829696e+00 -5.69054266e-01 8.17829696e+00 -4.47820352e+01 -3.17200569e+01 -5.69054266e-01 -3.17200569e+01 -1.12197419e+02
-1.06044162e+01 -2.40430852e+00 -2.16596892e+00 -2.40430852e+00 -1.23272290e+01 -7.83615923e+00 -2.16596892e+00 -7.83615923e+00 -4.46753380e+01
3.27964330e+00 -2.13936754e-02 2.45324984e-01 -2.13936754e-02 -8.05487752e-01 -1.93922274e-01 2.45324984e-01 -1.93922274e-01 -2.70356665e+01
7.70485282e-01 2.65222210e-01 1.27147503e-01 2.65222210e-01 -1.84639215e+00 7.57044204e-01 1.27147503e-01 7.57044204e-01 -3.09939947e+01
4.92406428e-01 9.91181791e-01 5.62235881e-01 9.91181791e-01 -2.39849317e+00 5.14679753e-01 5.62235881e-01 5.14679753e-01 -3.18127550e+01
1.55590281e+00 2.98265787e-01 6.40061408e-01 2.98265787e-01 -2.80658749e+00 -2.83734875e-01 6.40061408e-01 -2.83734875e-01 -3.10110663e+01
-3.99849045e+00 9.11305413e-01 -2.54700974e-01 9.11305413e-01 -3.16336918e+00 1.08550165e+00 -2.54700974e-01 1.08550165e+00 -3.76129308e+01
-4.68897974e+00 1.64584646e+00 5.54817749e-01 1.64584646e+00 -3.82228290e+00 1.27460622e+00 5.54817749e-01 1.27460622e+00 -3.88376503e+01
-5.41545996e+00 5.94607867e-01 5.48859918e-02 5.94607867e-01 -3.09760773e+00 4.19485403e-01 5.48859918e-02 4.19485403e-01 -3.91912928e+01
-8.79898803e+00 7.92626129e-01 1.85111389e-01 7.92626129e-01 -4.01684514e+00 1.64301308e+00 1.85111389e-01 1.64301308e+00 -4.32665711e+01
-3.73864326e+00 -9.04202700e-01 4.96904103e-02 -9.04202700e-01 -1.18770717e+00 4.03965376e-01 4.96904103e-02 4.03965376e-01 -3.52453671e+01
-3.17295238e+00 -6.23184220e-01 -6.22057825e-01 -6.23184220e-01 6.73743784e-01 4.16311547e-02 -6.22057825e-01 4.16311547e-02 -3.23722253e+01
5.81557751e-01 -6.79534569e-01 -3.65137801e-01 -6.79534569e-01 3.69999656e+00 -3.35295040e-01 -3.65137801e-01 -3.35295040e-01 -2.52017667e+01
3.18797673e+00 -1.24401756e+00 -1.12695807e+00 -1.24401756e+00 4.67356718e+00 -2.85039479e-01 -1.12695807e+00 -2.85039479e-01 -2.12714530e+01
-1.22597742e+00 2.54769288e-01 2.09524982e-01 2.54769288e-01 3.97865838e+00 -7.16246160e-01 2.09524982e-01 -7.16246160e-01 -2.66277885e+01
-1.00166875e+00 -1.26451109e+00 -5.52707016e-01 -1.26451109e+00 1.50672889e+00 -1.87819664e+00 -5.52707016e-01 -1.87819664e+00 -2.88086104e+01
-5.08602697e+00 1.72972608e+00 1.60819762e+00 1.72972608e+00 -1.01604879e+01 1.68063078e+00 1.60819762e+00 1.68063078e+00 -4.57566421e+01
-7.02512264e-02 9.01318684e-01 1.26998660e+00 9.01318684e-01 -4.92634583e+00 -3.70008670e-01 1.26998660e+00 -3.70008670e-01 -3.49489155e+01
-3.05183232e+00 2.24713343e+00 4.73507149e-01 2.24713343e+00 -3.83924198e+00 5.19081470e-01 4.73507149e-01 5.19081470e-01 -3.71041044e+01
5.48049289e+00 2.07127734e+00 -3.83045778e+00 2.07127734e+00 6.55970287e+00 -2.85742685e-01 -3.83045778e+00 -2.85742685e-01 -1.48056644e+01
8.71603884e+00 2.49514593e-01 -3.01378240e+00 2.49514593e-01 1.18944262e+01 -2.86963622e-01 -3.01378240e+00 -2.86963622e-01 -7.90942839e+00
-7.23582745e-01 -1.46184320e+00 -5.08993800e+00 -1.46184320e+00 2.61114041e+00 -1.79761029e+00 -5.08993800e+00 -1.79761029e+00 -2.68376776e+01
-3.91160361e+00 -4.16304759e+00 -7.05495453e+00 -4.16304759e+00 -6.37714609e+00 -3.60819539e+00 -7.05495453e+00 -3.60819539e+00 -3.78562012e+01
-1.53525635e+01 6.47469386e-02 5.51559979e+00 6.47469386e-02 -2.49524227e+01 -7.86427746e-01 5.51559979e+00 -7.86427746e-01 -7.13936278e+01
-2.56483154e+01 -1.95500616e+00 6.24653856e+00 -1.95500616e+00 -3.28235173e+01 -1.47396930e+00 6.24653856e+00 -1.47396930e+00 -9.17270508e+01
7.26385752e+00 1.89632661e+00 9.46093698e-02 1.89632661e+00 -1.16183440e-01 -3.81878067e+00 9.46093698e-02 -3.81878067e+00 -2.02856299e+01
2.91066270e+01 1.87243987e+00 -3.33820639e+00 1.87243987e+00 3.05595363e+01 1.28776028e+00 -3.33820639e+00 1.28776028e+00 3.46882140e+01
2.21114902e+01 -4.58581257e+00 -8.41383338e-01 -4.58581257e+00 1.76878395e+01 -8.07540035e+00 -8.41383338e-01 -8.07540035e+00 4.42855492e+01
1.74431934e+01 -6.68601125e-01 -1.54600867e+00 -6.68601125e-01 1.60284412e+01 -3.77890506e+00 -1.54600867e+00 -3.77890506e+00 1.08414992e+01
-1.65713005e+01 -3.32547516e-01 9.63606536e-01 -3.32547516e-01 -1.69623310e+01 6.28910032e+00 9.63606536e-01 6.28910032e+00 -6.23662628e+01
-4.75373205e+00 5.40170506e-01 -2.25700980e+00 5.40170506e-01 -7.23896631e+00 3.46271233e+00 -2.25700980e+00 3.46271233e+00 -4.24592338e+01
-6.99191971e+01 -7.07336020e+00 6.43344331e+00 -7.07336020e+00 -1.05429783e+02 -1.20118845e+01 6.43344331e+00 -1.20118845e+01 -2.13651718e+02
-1.99617632e+01 1.06320610e-01 -1.25608847e+00 1.06320610e-01 -1.61544800e+01 4.55545688e+00 -1.25608847e+00 4.55545688e+00 -6.82674026e+01
-1.01167128e+01 -2.34074859e-01 3.19356236e+00 -2.34074859e-01 -7.28813183e+00 3.65245279e-01 3.19356236e+00 3.65245279e-01 -4.87469301e+01
2.25295812e+00 -2.25602324e-01 1.66509908e+00 -2.25602324e-01 -2.83854485e-01 2.17119360e+00 1.66509908e+00 2.17119360e+00 -2.74290829e+01
4.28373528e+00 1.64963916e-01 1.48504618e+00 1.64963916e-01 3.13738155e+00 -1.17010388e+00 1.48504618e+00 -1.17010388e+00 -2.16867647e+01
-2.40744951e+01 1.15850517e+00 -9.45370309e-01 1.15850517e+00 -2.94895597e+01 -4.66967651e+00 -9.45370309e-01 -4.66967651e+00 -8.61818905e+01
-8.98344231e+00 -1.76546380e+00 -2.38789257e+00 -1.76546380e+00 -1.89880122e+01 5.94330591e+00 -2.38789257e+00 5.94330591e+00 -5.61973078e+01
1.81423922e+01 8.84953536e-01 2.42997028e-01 8.84953536e-01 3.72133589e+00 5.71974471e+00 2.42997028e-01 5.71974471e+00 -1.48098888e+01
9.60280228e+00 -1.75233357e+00 1.56093444e+00 -1.75233357e+00 1.81725247e+01 -1.30478273e+00 1.56093444e+00 -1.30478273e+00 -8.30186903e-02
7.41888046e+01 -1.62777591e+00 1.14287758e+00 -1.62777591e+00 5.49783745e+01 1.77540550e+01 1.14287758e+00 1.77540550e+01 7.40419235e+01
4.88574371e+01 1.60088003e+00 1.04260707e+00 1.60088003e+00 4.24847565e+01 9.25603294e+00 1.04260707e+00 9.25603294e+00 6.25964355e+01
8.01199549e+00 -3.97803414e+00 -1.81303891e+00 -3.97803414e+00 5.60707045e+00 -5.36352396e-03 -1.81303891e+00 -5.36352396e-03 1.41402650e+00
1.69774691e-01 -7.06111949e+00 -1.71094074e+00 -7.06111949e+00 1.13601542e+01 -6.17168144e+00 -1.71094074e+00 -6.17168144e+00 4.09058285e+00
-9.18459713e-01 -1.01394689e+00 1.35994518e+00 -1.01394689e+00 1.12219858e+00 -9.31504488e-01 1.35994518e+00 -9.31504488e-01 -7.08260953e-01
-9.07485366e-01 -6.67583346e-02 2.74336457e-01 -6.67583346e-02 -1.29828393e-01 5.72440982e-01 2.74336457e-01 5.72440982e-01 5.32825410e-01
8.49989057e-01 -6.98099732e-01 2.24891156e-01 -6.98099732e-01 -2.67079026e-01 -1.23692143e+00 2.24891156e-01 -1.23692143e+00 -1.08744979e+00
2.54345506e-01 -1.64575422e+00 -1.26252043e+00 -1.64575422e+00 4.00473237e-01 1.22809613e+00 -1.26252043e+00 1.22809613e+00 -1.15937817e+00
7.03750737e+00 2.60513072e+00 1.42347986e+00 2.60513072e+00 -2.85784969e+00 1.08426811e+00 1.42347986e+00 1.08426811e+00 -7.31314840e-01
1.40608642e+00 -3.72038841e-01 6.23625020e-02 -3.72038841e-01 -5.31909434e+00 1.18082221e+00 6.23625020e-02 1.18082221e+00 -4.92589970e-01
-3.21970260e+00 1.07894915e+00 -2.68150951e-01 1.07894915e+00 4.14909676e-01 -1.49796617e+00 -2.68150951e-01 -1.49796617e+00 3.55026159e-01
-5.24742862e+00 -2.99108855e+00 -2.69855738e-01 -2.99108855e+00 2.12207143e+00 -1.25608540e+00 -2.69855738e-01 -1.25608540e+00 3.26747274e+00
1.53947675e+00 -1.92630757e-02 -5.71622513e-03 -1.92630757e-02 -3.04596257e+00 1.12084113e-03 -5.71622513e-03 1.12084113e-03 -3.12845345e+01
3.26827049e-01 4.25506726e-01 -1.07324577e-02 4.25506726e-01 -2.54717521e+00 4.29311380e-01 -1.07324577e-02 4.29311380e-01 -3.22440243e+01
-1.09258771e-01 1.36952372e+00 3.16432312e-01 1.36952372e+00 -3.85978666e+00 6.06558420e-01 3.16432312e-01 6.06558420e-01 -3.39135914e+01
1.85050297e+00 3.63683566e-01 2.52143204e-01 3.63683566e-01 -3.40843916e+00 -1.06093702e-02 2.52143204e-01 -1.06093702e-02 -3.12362638e+01
-5.74795914e+00 6.03790462e-01 -9.03016375e-03 6.03790462e-01 -4.36916769e+00 1.14805746e+00 -9.03016375e-03 1.14805746e+00 -4.07980862e+01
-5.63977593e+00 2.53428712e+00 3.87587022e-01 2.53428712e+00 -4.95206589e+00 8.33354391e-01 3.87587022e-01 8.33354391e-01 -4.09779823e+01
-1.04222193e+01 1.24097025e+00 2.76080510e-02 1.24097025e+00 -5.12394977e+00 8.90115291e-01 2.76080510e-02 8.90115291e-01 -4.63772469e+01
-1.22496426e+01 1.89442436e+00 1.08143160e+00 1.89442436e+00 -5.97683990e+00 1.64134645e+00 1.08143160e+00 1.64134645e+00 -4.88369541e+01