<VTKFile type="UnstructuredGrid" version="0.1" byte_order="LittleEndian">
<UnstructuredGrid>
<Piece NumberOfPoints="173" NumberOfCells="80">
<Points>
<DataArray type="Float64" NumberOfComponents="3" format="ascii">
 0.00000000e+00  0.00000000e+00  0.00000000e+00
 1.00734341e+00  0.00000000e+00  0.00000000e+00
 1.00836635e+00  1.01977527e+00  0.00000000e+00
 0.00000000e+00  1.01858664e+00  0.00000000e+00
 0.00000000e+00  0.00000000e+00  9.77825582e-01
 1.00768280e+00  0.00000000e+00  9.76679802e-01
 1.00778508e+00  1.01788223e+00  9.77980435e-01
 0.00000000e+00  1.01759791e+00  9.79659200e-01
 2.01669168e+00  0.00000000e+00  0.00000000e+00
 2.01723981e+00  1.02256334e+00  0.00000000e+00
 2.01674294e+00  0.00000000e+00  9.72781003e-01
 2.01740003e+00  1.01933849e+00  9.75339651e-01
 3.02734637e+00  0.00000000e+00  0.00000000e+00
 3.02797627e+00  1.02626753e+00  0.00000000e+00
 3.02928019e+00  0.00000000e+00  9.68799114e-01
 3.02814293e+00  1.02123082e+00  9.71578717e-01
 4.04233122e+00  0.00000000e+00  0.00000000e+00
 4.03922081e+00  1.02916265e+00  0.00000000e+00
 4.04427719e+00  0.00000000e+00  9.65496242e-01
 4.04113340e+00  1.02196145e+00  9.67354596e-01
 5.06085539e+00  0.00000000e+00  0.00000000e+00
 5.05473089e+00  1.03180254e+00  0.00000000e+00
 5.06172037e+00  0.00000000e+00  9.59698141e-01
 5.05786228e+00  1.02316618e+00  9.63539422e-01
 6.08245420e+00  0.00000000e+00  0.00000000e+00
 6.06866693e+00  1.04237413e+00  0.00000000e+00
 6.07879686e+00  0.00000000e+00  9.56736445e-01
 6.07603073e+00  1.03021443e+00  9.57754314e-01
 1.00982165e+00  2.03361297e+00  0.00000000e+00
 0.00000000e+00  2.03256249e+00  0.00000000e+00
 1.00857866e+00  2.03252935e+00  9.82706428e-01
 0.00000000e+00  2.03154182e+00  9.82938588e-01
 2.01941657e+00  2.03739405e+00  0.00000000e+00
 2.01762509e+00  2.03507471e+00  9.83191907e-01
 3.02709174e+00  2.04145432e+00  0.00000000e+00
 3.02585220e+00  2.03787398e+00  9.86205935e-01
 4.03383160e+00  2.04706383e+00  0.00000000e+00
 4.03531933e+00  2.03993607e+00  9.84713435e-01
 5.03897667e+00  2.05006528e+00  0.00000000e+00
 5.04324961e+00  2.04260492e+00  9.85603333e-01
 6.04651117e+00  2.06049705e+00  0.00000000e+00
 6.05463982e+00  2.05319691e+00  9.85004604e-01
 1.01068676e+00  3.04104471e+00  0.00000000e+00
 0.00000000e+00  3.04017258e+00  0.00000000e+00
 1.00917721e+00  3.04108620e+00  9.87598181e-01
 0.00000000e+00  3.04065299e+00  9.86404955e-01
 2.01974440e+00  3.04243660e+00  0.00000000e+00
 2.01790357e+00  3.04242420e+00  9.91460741e-01
 3.02507758e+00  3.04549909e+00  0.00000000e+00
 3.02341652e+00  3.04433465e+00  9.97120142e-01
 4.02596903e+00  3.04901004e+00  0.00000000e+00
 4.02485085e+00  3.04577065e+00  1.00083792e+00
 5.03065157e+00  3.04920840e+00  0.00000000e+00
 5.03004122e+00  3.04620457e+00  1.00240612e+00
 6.03125143e+00  3.06023836e+00  0.00000000e+00
 6.03186941e+00  3.05872726e+00  1.00150311e+00
 1.01060867e+00  4.04432583e+00  0.00000000e+00
 0.00000000e+00  4.04482269e+00  0.00000000e+00
 1.00910056e+00  4.04515600e+00  9.89522219e-01
 0.00000000e+00  4.04558897e+00  9.88303721e-01
 2.01872444e+00  4.04461288e+00  0.00000000e+00
 2.01673055e+00  4.04408121e+00  9.93495286e-01
 3.02210355e+00  4.04567337e+00  0.00000000e+00
 3.02038717e+00  4.04504824e+00  9.98500884e-01
 4.02162123e+00  4.04835606e+00  0.00000000e+00
 4.02147293e+00  4.04829311e+00  9.99945462e-01
 6.02209187e+00  4.05388594e+00  0.00000000e+00
 5.02193069e+00  4.05068064e+00  0.00000000e+00
 6.02215147e+00  4.05405712e+00  9.99979913e-01
 5.02194786e+00  4.05080414e+00  1.00011623e+00
 1.00987697e+00  5.04812860e+00  0.00000000e+00
 0.00000000e+00  5.04945946e+00  0.00000000e+00
 1.00863945e+00  5.04895020e+00  9.88979161e-01
 0.00000000e+00  5.04965591e+00  9.86633539e-01
 2.01724076e+00  5.04593229e+00  0.00000000e+00
 2.01461411e+00  5.04646730e+00  9.93396342e-01
 3.01922846e+00  5.04628611e+00  0.00000000e+00
 3.01832533e+00  5.04617405e+00  9.99018848e-01
 4.01934862e+00  5.04829645e+00  0.00000000e+00
 4.01916409e+00  5.04827404e+00  1.00012839e+00
 5.01921320e+00  5.05084133e+00  0.00000000e+00
 5.01926947e+00  5.05085421e+00  1.00000131e+00
 6.01921558e+00  5.05358791e+00  0.00000000e+00
 6.01925182e+00  5.05353785e+00  9.99950230e-01
 1.01105690e+00  6.05403185e+00  0.00000000e+00
 0.00000000e+00  6.05537558e+00  0.00000000e+00
 1.00908065e+00  6.05392313e+00  9.87157285e-01
 0.00000000e+00  6.05597162e+00  9.84606922e-01
 2.01809216e+00  6.04939604e+00  0.00000000e+00
 2.01460481e+00  6.05180311e+00  9.90977645e-01
 3.01819968e+00  6.04686213e+00  0.00000000e+00
 3.01774049e+00  6.04846668e+00  9.97893155e-01
 4.01720715e+00  6.04839420e+00  0.00000000e+00
 4.01695919e+00  6.04840851e+00  1.00013256e+00
 5.01673126e+00  6.05084562e+00  0.00000000e+00
 5.01674652e+00  6.05086851e+00  1.00003278e+00
 6.01666164e+00  6.05349922e+00  0.00000000e+00
 6.01668358e+00  6.05346394e+00  1.00002003e+00
 0.00000000e+00  0.00000000e+00  1.95774710e+00
 1.00903058e+00  0.00000000e+00  1.95512378e+00
 1.00834286e+00  1.01441908e+00  1.95807040e+00
 0.00000000e+00  1.01497793e+00  1.95913935e+00
 2.02038789e+00  0.00000000e+00  1.95145011e+00
 2.01764584e+00  1.01205516e+00  1.95151401e+00
 3.03234053e+00  0.00000000e+00  1.94462514e+00
 3.03252387e+00  1.01132238e+00  1.94502676e+00
 4.04905605e+00  0.00000000e+00  1.93515944e+00
 4.04758310e+00  1.01211333e+00  1.94250941e+00
 5.06535530e+00  0.00000000e+00  1.92796624e+00
 5.06419945e+00  1.01277339e+00  1.93596101e+00
 6.07817745e+00  0.00000000e+00  1.92319024e+00
 6.08196640e+00  1.01282501e+00  1.93032944e+00
 1.00594652e+00  2.02853894e+00  1.96434951e+00
 0.00000000e+00  2.02983403e+00  1.96740973e+00
 2.01556754e+00  2.02791953e+00  1.96271014e+00
 3.02860808e+00  2.03026080e+00  1.96120441e+00
 4.04506397e+00  2.03392172e+00  1.95223713e+00
 5.06367970e+00  2.03471661e+00  1.95209861e+00
 6.08286953e+00  2.03502512e+00  1.94502628e+00
 1.00493455e+00  3.04065037e+00  1.97330630e+00
 0.00000000e+00  3.04064655e+00  1.97580838e+00
 2.01246548e+00  3.04098439e+00  1.98029983e+00
 3.01110458e+00  3.04050350e+00  2.00205135e+00
 1.00595152e+00  4.04793167e+00  1.98032331e+00
 0.00000000e+00  4.04736614e+00  1.97790742e+00
 2.01199269e+00  4.04579449e+00  1.98757303e+00
 3.01468468e+00  4.04115772e+00  1.99550116e+00
 1.00580382e+00  5.05097914e+00  1.97932696e+00
 0.00000000e+00  5.05203438e+00  1.97715616e+00
 2.01107144e+00  5.04914618e+00  1.98588049e+00
 3.01957250e+00  5.04627800e+00  1.98891878e+00
 1.00392675e+00  6.05790663e+00  1.97346878e+00
 0.00000000e+00  6.05614948e+00  1.97439325e+00
 2.01041460e+00  6.05988455e+00  1.97782099e+00
 3.02147651e+00  6.05854893e+00  1.97870457e+00
 5.01932240e+00  5.05084038e+00  2.00001049e+00
 6.01933050e+00  5.05341625e+00  1.99995542e+00
 6.01673126e+00  6.05343342e+00  2.00001335e+00
 5.01671553e+00  6.05084324e+00  2.00004244e+00
 0.00000000e+00  0.00000000e+00  2.93592668e+00
 1.01202893e+00  0.00000000e+00  2.93473315e+00
 1.01201820e+00  1.01263416e+00  2.93825006e+00
 0.00000000e+00  1.01248384e+00  2.94040823e+00
 2.02643442e+00  0.00000000e+00  2.92888308e+00
 2.02310967e+00  1.00960898e+00  2.93410277e+00
 3.03946185e+00  0.00000000e+00  2.92317009e+00
 3.03961992e+00  1.00719142e+00  2.92507362e+00
 4.05520535e+00  0.00000000e+00  2.91761255e+00
 4.05553007e+00  1.00774765e+00  2.91530442e+00
 5.06945705e+00  0.00000000e+00  2.90982342e+00
 5.07054138e+00  1.00876629e+00  2.91131544e+00
 6.08116055e+00  0.00000000e+00  2.90641212e+00
 6.08306885e+00  1.00733876e+00  2.90836954e+00
 1.00745881e+00  2.02318668e+00  2.94726896e+00
 0.00000000e+00  2.02726436e+00  2.94855857e+00
 2.02085423e+00  2.02230573e+00  2.93536448e+00
 3.03590584e+00  2.02519417e+00  2.91944242e+00
 4.05637264e+00  2.02855015e+00  2.91768003e+00
 5.07320595e+00  2.02445841e+00  2.91540170e+00
 6.08694077e+00  2.02106452e+00  2.91377234e+00
 1.00459349e+00  3.04019070e+00  2.96322608e+00
 0.00000000e+00  3.03957367e+00  2.95918036e+00
 2.01851273e+00  3.03617239e+00  2.94928145e+00
 1.00398803e+00  4.04872274e+00  2.97055578e+00
 0.00000000e+00  4.05074358e+00  2.96945405e+00
 2.01123857e+00  4.04860258e+00  2.98128557e+00
 1.00467253e+00  5.05719090e+00  2.96936226e+00
 0.00000000e+00  5.05499744e+00  2.97025800e+00
 2.01184797e+00  5.05815029e+00  2.96967936e+00
 3.01223969e+00  4.05268717e+00  3.00407934e+00
 3.02316523e+00  5.05372810e+00  2.96749330e+00
 1.00445986e+00  6.06303072e+00  2.96529913e+00
 0.00000000e+00  6.06336260e+00  2.96105838e+00
</DataArray>
</Points>
<PointData Tensors="Stress_Components,Plastic_strain_components" Vevtors="Spatial_displacement,Reaction_force" Scalars="Equivalent_plastic_strain,Stress_Mises,Stress_Max_Principal,Stress_Mid_Principal,Stress_Min_Principal,Stress_Pressure,Stress_Tresca,Stress_Third_Invariant,Plastic_strain_Max_Principal,Plastic_strain_Min_Principal">
<DataArray type="Float32" Name="Stress_Components" NumberOfComponents="9" format="ascii">
-4.01070881e+00 6.02241606e-04 -3.34908068e-03 6.02241606e-04 3.25734615e+00 -2.87796371e-03 -3.34908068e-03 -2.87796371e-03 -2.99050941e+01
-4.95127127e+00 3.23279068e-01 -8.24752497e-04 3.23279068e-01 2.38357204e+00 6.59922138e-03 -8.24752497e-04 6.59922138e-03 -3.18788195e+01
-3.72184908e+00 1.02000117e+00 -6.47115037e-01 1.02000117e+00 1.68414389e+00 -2.60411784e-01 -6.47115037e-01 -2.60411784e-01 -3.15870509e+01
-1.83124656e+00 3.80015954e-01 -3.59318063e-01 3.80015954e-01 3.31566298e+00 3.53256054e-03 -3.59318063e-01 3.53256054e-03 -2.78857050e+01
-3.08781338e+00 4.59135044e-04 5.64056635e-01 4.59135044e-04 3.64685488e+00 -4.09772888e-01 5.64056635e-01 -4.09772888e-01 -2.85723200e+01
-3.93401259e+00 8.09553703e-02 4.78959300e-01 8.09553703e-02 2.55797244e+00 -5.29842319e-01 4.78959300e-01 -5.29842319e-01 -3.07545862e+01
-2.48397392e+00 5.03535662e-01 6.10974161e-02 5.03535662e-01 2.63489614e+00 -7.83125564e-01 6.10974161e-02 -7.83125564e-01 -2.93001993e+01
-2.76586622e+00 1.30284972e-01 1.88870888e-01 1.30284972e-01 2.64360356e+00 -4.94878359e-01 1.88870888e-01 -4.94878359e-01 -2.95826731e+01
-8.58293080e+00 9.38451067e-02 -1.09625035e-02 9.38451067e-02 -6.42581463e-01 -2.14936621e-01 -1.09625035e-02 -2.14936621e-01 -3.90843401e+01
-6.60015357e+00 1.61762729e+00 -9.26471427e-01 1.61762729e+00 -6.42182827e-01 9.45773569e-03 -9.26471427e-01 9.45773569e-03 -3.70907652e+01
-3.51682930e+00 2.60960292e-01 6.02722771e-01 2.60960292e-01 1.82991657e+00 -5.72535140e-01 6.02722771e-01 -5.72535140e-01 -3.13465686e+01
-5.56626832e+00 7.74947278e-01 -2.06358850e-01 7.74947278e-01 -3.85094982e-01 -1.25422426e+00 -2.06358850e-01 -1.25422426e+00 -3.58990617e+01
-1.21992183e+01 5.05131513e-01 -3.35913133e-02 5.05131513e-01 -3.87253225e+00 6.68203086e-01 -3.35913133e-02 6.68203086e-01 -4.64855213e+01
-9.49081975e+00 1.18247303e+00 -1.58517851e+00 1.18247303e+00 -3.01392424e+00 -4.23159130e-01 -1.58517851e+00 -4.23159130e-01 -4.29004164e+01
-4.78752735e+00 -4.83444482e-01 4.12605457e-01 -4.83444482e-01 -5.54304749e-01 -5.51981702e-01 4.12605457e-01 -5.51981702e-01 -3.55992260e+01
-7.03470522e+00 -2.01723508e-01 4.63594660e-01 -2.01723508e-01 -2.08654304e+00 -6.91508491e-01 4.63594660e-01 -6.91508491e-01 -3.92425582e+01
-1.15389061e+01 -9.38319564e-01 -2.21763039e-02 -9.38319564e-01 -4.45147264e+00 4.40522701e-01 -2.21763039e-02 4.40522701e-01 -4.66734924e+01
-1.39531609e+01 -7.56848288e-01 -2.65697268e+00 -7.56848288e-01 -6.20742184e+00 3.78955260e-01 -2.65697268e+00 3.78955260e-01 -5.09756165e+01
-6.60017169e+00 -1.11723322e+00 5.45107543e-01 -1.11723322e+00 -3.18997854e+00 -3.20160792e-01 5.45107543e-01 -3.20160792e-01 -4.04805143e+01
-3.01137221e+00 -1.27056956e+00 6.42885454e-01 -1.27056956e+00 -1.84490595e-01 1.43568745e-01 6.42885454e-01 1.43568745e-01 -3.30613278e+01
-1.25096407e+01 -1.33086661e+00 -3.97829618e-02 -1.33086661e+00 -5.54866338e+00 4.29027975e-01 -3.97829618e-02 4.29027975e-01 -4.89483299e+01
-1.26347365e+01 -2.95330207e+00 -2.84728901e+00 -2.95330207e+00 -5.51732945e+00 1.09004603e+00 -2.84728901e+00 1.09004603e+00 -4.81906247e+01
-4.27498233e+00 -9.61858273e-01 1.08137063e+00 -9.61858273e-01 -1.17953056e+00 8.01994372e-03 1.08137063e+00 8.01994372e-03 -3.57456014e+01
-3.44447704e+00 -2.08419337e+00 1.38531664e+00 -2.08419337e+00 -1.42813008e+00 2.76031595e-01 1.38531664e+00 2.76031595e-01 -3.47333061e+01
-2.95683136e+01 -4.26143646e+00 -2.31797043e-02 -4.26143646e+00 -1.57246180e+01 -3.95948023e-01 -2.31797043e-02 -3.95948023e-01 -7.68369751e+01
-3.08601370e+01 -3.57933626e+00 -4.07021725e+00 -3.57933626e+00 -1.62712879e+01 3.59071195e+00 -4.07021725e+00 3.59071195e+00 -7.77536812e+01
-1.38023292e+01 -9.25448328e-01 3.32590833e-01 -9.25448328e-01 -5.60383236e+00 -3.10706299e-01 3.32590833e-01 -3.10706299e-01 -5.04316387e+01
-1.39823948e+01 -2.09090930e+00 6.31225437e-01 -2.09090930e+00 -8.33753908e+00 1.17732859e+00 6.31225437e-01 1.17732859e+00 -5.27788091e+01
8.95619869e-01 1.60684973e+00 -4.37175162e-01 1.60684973e+00 4.38068390e-01 -5.60396224e-01 -4.37175162e-01 -5.60396224e-01 -2.82564468e+01
1.08824086e+00 3.27537850e-01 -6.10240877e-01 3.27537850e-01 8.42380762e-01 3.39332968e-04 -6.10240877e-01 3.39332968e-04 -2.77842035e+01
-5.37426241e-01 1.07510979e+00 8.11161733e-01 1.07510979e+00 1.04683682e+00 -1.01730761e+00 8.11161733e-01 -1.01730761e+00 -2.91848655e+01
1.93683753e+00 4.69545968e-01 9.79661807e-01 4.69545968e-01 3.58003721e+00 -2.02381399e-01 9.79661807e-01 -2.02381399e-01 -2.39344268e+01
2.35908876e+00 2.41392452e+00 -1.30769758e+00 2.41392452e+00 1.30482137e+00 -1.01728924e+00 -1.30769758e+00 -1.01728924e+00 -2.52719388e+01
1.06114388e-01 1.37212056e+00 1.61360288e+00 1.37212056e+00 1.35423750e+00 -3.36302830e-01 1.61360288e+00 -3.36302830e-01 -2.79967147e+01
1.04977623e+01 1.23350721e+00 -1.56505898e+00 1.23350721e+00 9.50299555e+00 -6.78498735e-01 -1.56505898e+00 -6.78498735e-01 -8.39642334e+00
1.81417043e+00 3.06182016e-01 3.61591915e+00 3.06182016e-01 3.23380814e+00 3.68655266e-01 3.61591915e+00 3.68655266e-01 -2.38971664e+01
1.06496205e+01 -2.11615284e+00 -3.24337528e+00 -2.11615284e+00 1.00294924e+01 2.20452818e-01 -3.24337528e+00 2.20452818e-01 -6.90386772e+00
-5.65617800e-01 -3.16635118e+00 4.65202049e+00 -3.16635118e+00 1.29232268e+00 1.31934724e+00 4.65202049e+00 1.31934724e+00 -2.74795136e+01
1.71920142e+01 -7.83700038e-01 -3.34710276e+00 -7.83700038e-01 1.02190363e+01 1.88332888e+00 -3.34710276e+00 1.88332888e+00 2.06035614e+00
1.04914474e+00 -3.52737129e+00 5.21098719e+00 -3.52737129e+00 2.20942458e-01 3.92811337e+00 5.21098719e+00 3.92811337e+00 -2.53069032e+01
1.26857219e+01 -3.00986493e+00 -4.07092131e+00 -3.00986493e+00 4.44267082e+00 3.36196092e+00 -4.07092131e+00 3.36196092e+00 -8.36178017e+00
-1.30398858e+01 -6.69487456e+00 5.50781850e+00 -6.69487456e+00 -1.11685441e+01 6.65323063e+00 5.50781850e+00 6.65323063e+00 -5.13174299e+01
5.15793657e+00 9.10497144e-01 1.53817870e-01 9.10497144e-01 -1.45006859e+00 -8.93788770e-01 1.53817870e-01 -8.93788770e-01 -2.50403259e+01
3.30713034e+00 5.27981311e-01 3.87209699e-01 5.27981311e-01 -2.88232124e+00 -1.36179198e-02 3.87209699e-01 -1.36179198e-02 -2.88778219e+01
3.29848560e+00 6.82147216e-01 1.62985572e+00 6.82147216e-01 -1.25590222e+00 -3.84934141e-01 1.62985572e+00 -3.84934141e-01 -2.71489576e+01
5.32327092e+00 2.67673135e-01 1.53994042e+00 2.67673135e-01 2.29387925e+00 2.54890155e-01 1.53994042e+00 2.54890155e-01 -2.14378846e+01
9.90283383e+00 1.48774771e+00 1.99346591e-01 1.48774771e+00 4.19630447e+00 -1.66413167e+00 1.99346591e-01 -1.66413167e+00 -1.38617509e+01
9.53172050e+00 6.66919074e-01 2.40765207e+00 6.66919074e-01 3.84271033e+00 9.26533584e-01 2.40765207e+00 9.26533584e-01 -1.46939783e+01
1.99191763e+01 8.12837878e-01 -1.50945461e+00 8.12837878e-01 1.61558924e+01 -1.47506700e+00 -1.50945461e+00 -1.47506700e+00 8.45982659e+00
2.32640088e+01 -6.45308328e-01 -2.72280594e-01 -6.45308328e-01 1.90128153e+01 8.04484089e-01 -2.72280594e-01 8.04484089e-01 1.64637713e+01
2.59587250e+01 -5.64977261e-01 -4.73877243e+00 -5.64977261e-01 2.31138323e+01 -1.41922849e+00 -4.73877243e+00 -1.41922849e+00 3.03283822e+01
3.89372507e+00 -6.41439470e+00 1.97453070e+00 -6.41439470e+00 1.01496998e+01 3.08300968e+00 1.97453070e+00 3.08300968e+00 2.33353576e+00
2.73761959e+01 3.00092293e+00 -5.39753278e+00 3.00092293e+00 2.85999781e+01 -7.21620739e-01 -5.39753278e+00 -7.21620739e-01 3.66082198e+01
3.03895545e+00 2.16141035e-01 2.67722225e+00 2.16141035e-01 8.28127193e+00 -1.19531560e+00 2.67722225e+00 -1.19531560e+00 4.10160565e+00
1.88766286e+01 2.15005875e-03 -1.86347443e+00 2.15005875e-03 3.20425892e+00 7.29025351e-01 -1.86347443e+00 7.29025351e-01 2.08901248e+01
-6.36850357e-01 -2.47915077e+00 5.32276344e+00 -2.47915077e+00 -1.09618556e+01 -1.15867841e+00 5.32276344e+00 -1.15867841e+00 -2.73061275e+00
5.57176551e+00 -4.97703593e-01 5.56262985e-01 -4.97703593e-01 -3.67285699e+00 -1.18159217e+00 5.56262985e-01 -1.18159217e+00 -2.63749032e+01
4.10972607e+00 -5.27463853e-01 6.34987116e-01 -5.27463853e-01 -4.51762617e+00 -1.08741350e-02 6.34987116e-01 -1.08741350e-02 -2.91478958e+01
5.80529568e+00 -9.66955129e-01 1.98952418e+00 -9.66955129e-01 -1.37759720e+00 7.85397142e-02 1.98952418e+00 7.85397142e-02 -2.38471130e+01
4.52477729e+00 -6.23096004e-01 7.64122726e-01 -6.23096004e-01 -2.37087849e+00 5.55483505e-01 7.64122726e-01 5.55483505e-01 -2.67490225e+01
8.84766066e+00 -5.69295470e-01 -5.61458007e-01 -5.69295470e-01 7.31449500e-01 -2.23861960e+00 -5.61458007e-01 -2.23861960e+00 -1.82120456e+01
9.54494521e+00 -1.54299000e+00 1.22090337e+00 -1.54299000e+00 2.24244324e+00 1.50025233e+00 1.22090337e+00 1.50025233e+00 -1.54795362e+01
1.17777513e+01 -2.30664072e+00 -1.73511390e+00 -2.30664072e+00 9.33303106e+00 -5.12096095e+00 -1.73511390e+00 -5.12096095e+00 -2.52861243e+00
1.44824816e+01 -7.46539449e-01 -5.13026297e-01 -7.46539449e-01 7.92243707e+00 1.47672473e+00 -5.13026297e-01 1.47672473e+00 -4.50806093e+00
1.20874736e+01 1.18687677e+00 -2.67415996e+00 1.18687677e+00 1.19772041e+01 -3.19832349e+00 -2.67415996e+00 -3.19832349e+00 6.78204880e+00
1.41662547e+01 3.28124928e+00 1.58485572e-01 3.28124928e+00 5.91189575e+00 5.80840149e+00 1.58485572e-01 5.80840149e+00 -4.08733785e-01
4.23879042e+00 -2.66589737e+00 1.68163481e+00 -2.66589737e+00 -1.71419845e+01 6.26349378e-01 1.68163481e+00 6.26349378e-01 3.62188386e-01
5.48001309e+00 -4.44690736e+00 1.91459113e+00 -4.44690736e+00 6.24589024e+00 2.80361104e-01 1.91459113e+00 2.80361104e-01 1.87178596e+00
8.23419619e+00 -3.61538625e+00 2.83914208e-01 -3.61538625e+00 -1.57596116e+01 -7.92975650e-01 2.83914208e-01 -7.92975650e-01 3.36289740e+00
6.58800272e+00 -8.64394665e-01 -1.46921785e+00 -8.64394665e-01 4.72696296e+00 5.01036515e-01 -1.46921785e+00 5.01036515e-01 4.00527318e-02
3.30055006e+00 -1.69469656e+00 9.06566873e-01 -1.69469656e+00 -3.07460028e+00 -7.93852791e-01 9.06566873e-01 -7.93852791e-01 -2.87891359e+01
2.12949520e+00 -1.18954885e+00 8.93203095e-02 -1.18954885e+00 -4.94009757e+00 -9.48406570e-03 8.93203095e-02 -9.48406570e-03 -3.21773939e+01
4.51068985e+00 -1.45325362e+00 2.07199088e-01 -1.45325362e+00 -3.82452548e-01 1.02895935e+00 2.07199088e-01 1.02895935e+00 -2.48054132e+01
3.07146043e+00 -4.66564350e-01 -3.16037543e-01 -4.66564350e-01 -2.73560473e+00 1.32161033e+00 -3.16037543e-01 1.32161033e+00 -2.88370500e+01
4.96959716e+00 -1.05762844e+00 8.37673262e-01 -1.05762844e+00 8.42046320e-01 -3.40651304e+00 8.37673262e-01 -3.40651304e+00 -2.23438897e+01
5.63257872e+00 -2.85529548e+00 -9.58934284e-02 -2.85529548e+00 3.55992677e+00 2.00010406e+00 -9.58934284e-02 2.00010406e+00 -1.88639613e+01
8.95137811e+00 -2.44229972e-01 -1.57771837e-01 -2.44229972e-01 9.38249099e+00 -3.89256153e+00 -1.57771837e-01 -3.89256153e+00 -8.03579605e+00
3.90164431e+00 -2.80970966e-01 -8.59599834e-01 -2.80970966e-01 3.19924016e+00 5.20577625e+00 -8.59599834e-01 5.20577625e+00 -1.80566241e+01
2.11704123e+00 8.18237640e-01 -5.18628731e-01 8.18237640e-01 5.37545449e+00 -4.82578319e+00 -5.18628731e-01 -4.82578319e+00 1.45978516e+00
8.24790439e+00 3.11339113e+00 5.63404284e-01 3.11339113e+00 9.18136865e-01 4.34818208e+00 5.63404284e-01 4.34818208e+00 -1.94104983e+00
-2.06155258e+00 9.54629168e-01 2.66331799e-01 9.54629168e-01 4.14668036e+00 1.17142686e+00 2.66331799e-01 1.17142686e+00 6.12454832e-01
1.10575311e+00 1.17815996e+00 -4.15958422e-01 1.17815996e+00 1.01999837e+00 -5.37110101e-01 -4.15958422e-01 -5.37110101e-01 -1.98225614e-01
1.97771548e+00 6.63557410e-01 -1.04595959e+00 6.63557410e-01 -6.17818213e+00 7.58035511e-01 -1.04595959e+00 7.58035511e-01 -3.46601188e-01
1.96009156e+00 1.08677308e-01 -7.81297117e-01 1.08677308e-01 -6.58253415e+00 -1.41172906e-02 -7.81297117e-01 -1.41172906e-02 1.22796949e+00
-1.14598918e+00 -1.82549475e+00 -2.07178362e-01 -1.82549475e+00 -6.62365997e+00 -1.06803131e+00 -2.07178362e-01 -1.06803131e+00 -3.76889467e+01
-1.49404538e+00 -6.85034037e-01 7.64189184e-01 -6.85034037e-01 -9.47795200e+00 -1.14345625e-02 7.64189184e-01 -1.14345625e-02 -4.09746246e+01
-4.63213362e-01 -1.01761121e+00 1.79806411e-01 -1.01761121e+00 -4.85707249e+00 -7.33075447e-01 1.79806411e-01 -7.33075447e-01 -3.52369442e+01
-3.26900035e-01 -1.64858305e+00 -6.59054548e-01 -1.64858305e+00 -4.84863234e+00 1.22579461e+00 -6.59054548e-01 1.22579461e+00 -3.52189503e+01
-4.07961321e+00 -2.84108162e+00 3.40630317e+00 -2.84108162e+00 -3.15161467e+00 -4.81570733e+00 3.40630317e+00 -4.81570733e+00 -3.55585594e+01
-3.85571262e+00 -3.07695875e+00 1.67082600e+00 -3.07695875e+00 -1.54401037e+00 1.44194376e+00 1.67082600e+00 1.44194376e+00 -3.53280654e+01
1.73478937e+00 -2.30166209e+00 7.85467625e+00 -2.30166209e+00 8.39836264e+00 -9.59589660e-01 7.85467625e+00 -9.59589660e-01 -1.75210023e+01
-1.01701169e+01 -4.83928680e+00 3.66938082e+00 -4.83928680e+00 -4.15426000e+00 1.00790456e+01 3.66938082e+00 1.00790456e+01 -3.78189570e+01
-2.19527502e+01 -2.36363959e+00 1.94120194e+00 -2.36363959e+00 1.03799665e+01 -2.25537962e+00 1.94120194e+00 -2.25537962e+00 5.67346334e+00
-1.22994075e+01 -5.29101205e+00 4.08464149e-01 -5.29101205e+00 -9.37167287e-01 3.53132749e+00 4.08464149e-01 3.53132749e+00 -1.12368011e+00
-9.48184180e+00 1.45335937e+00 4.68280420e-01 1.45335937e+00 2.08771139e+00 3.19577172e-01 4.68280420e-01 3.19577172e-01 3.12826941e+00
-4.71030696e+00 5.63713670e-01 7.90425430e-01 5.63713670e-01 5.93344092e-01 -8.74016484e-01 7.90425430e-01 -8.74016484e-01 9.09925481e-01
-2.75268126e+00 2.06530261e+00 -7.34780550e-01 2.06530261e+00 -3.53392315e+00 4.56703335e-01 -7.34780550e-01 4.56703335e-01 8.57212603e-01
-1.86461669e+00 5.60356826e-01 7.68554240e-01 5.60356826e-01 -2.30576801e+00 4.59209912e-01 7.68554240e-01 4.59209912e-01 9.10956204e-01
-2.29506338e+00 -2.26570223e-03 9.27908272e-02 -2.26570223e-03 2.02953699e+00 -1.06083733e+00 9.27908272e-02 -1.06083733e+00 -2.99657402e+01
-1.63038478e+00 -1.81031931e-01 9.16602299e-01 -1.81031931e-01 1.45300376e+00 -5.41057786e-01 9.16602299e-01 -5.41057786e-01 -3.00009828e+01
-5.93320839e-01 -9.66319162e-01 6.57518025e-01 -9.66319162e-01 3.35504382e+00 -3.27072549e-01 6.57518025e-01 -3.27072549e-01 -2.65809717e+01
-2.72774373e+00 -1.35952586e-01 7.56412566e-01 -1.35952586e-01 2.55442971e+00 -2.57975295e-01 7.56412566e-01 -2.57975295e-01 -2.95843635e+01
1.98401475e+00 -1.03808747e+00 3.39488730e-01 -1.03808747e+00 2.28274757e+00 5.68664870e-02 3.39488730e-01 5.68664870e-02 -2.54464068e+01
1.33865549e+00 -1.27569722e+00 -2.64959186e-02 -1.27569722e+00 2.77593728e+00 -1.43688259e+00 -2.64959186e-02 -1.43688259e+00 -2.50455053e+01
3.71461901e+00 7.83871002e-02 8.57054386e-02 7.83871002e-02 1.91893528e+00 -6.83302589e-01 8.57054386e-02 -6.83302589e-01 -2.39011016e+01
1.69140927e+00 -7.55202187e-01 -1.29201099e-01 -7.55202187e-01 1.37432806e+00 -4.42959720e-02 -1.29201099e-01 -4.42959720e-02 -2.63575447e+01
2.68727803e+00 -5.11977151e-01 1.60460964e+00 -5.11977151e-01 -6.49153516e-01 -8.46859403e-01 1.60460964e+00 -8.46859403e-01 -2.75680785e+01
7.78967321e-01 -4.95136131e-01 3.00124777e-01 -4.95136131e-01 1.00350678e+00 9.55424866e-01 3.00124777e-01 9.55424866e-01 -2.79329891e+01
4.02536458e+00 -5.39227381e-01 1.82272977e+00 -5.39227381e-01 2.58648598e+00 -3.26986935e-01 1.82272977e+00 -3.26986935e-01 -2.26332617e+01
2.36997878e+00 -1.86043345e-01 1.18889484e+00 -1.86043345e-01 1.63810498e+00 2.90997474e-01 1.18889484e+00 2.90997474e-01 -2.55489832e+01
5.93968010e+00 1.10505378e+00 1.50288945e+00 1.10505378e+00 6.08487988e+00 -1.67349868e-01 1.50288945e+00 -1.67349868e-01 -1.70205755e+01
5.97143888e+00 5.15287921e-01 -9.64993238e-03 5.15287921e-01 4.93956101e+00 -4.46075290e-01 -9.64993238e-03 -4.46075290e-01 -1.81450525e+01
7.85529114e-01 -1.18939769e+00 1.07476245e+00 -1.18939769e+00 4.75934803e+00 -1.41679795e+00 1.07476245e+00 -1.41679795e+00 -2.34443747e+01
-1.60081485e+00 -8.04641575e-01 2.60784391e+00 -8.04641575e-01 3.98306347e+00 -1.03240448e+00 2.60784391e+00 -1.03240448e+00 -2.62609484e+01
-1.03533023e+01 -9.52613155e-01 3.34923361e+00 -9.52613155e-01 -6.61009811e+00 -3.80554114e-01 3.34923361e+00 -3.80554114e-01 -4.80453461e+01
-2.57347200e+01 -3.09849582e+00 9.16314158e+00 -3.09849582e+00 -2.35442762e+01 6.41843775e-01 9.16314158e+00 6.41843775e-01 -7.84144409e+01
-1.76873531e+01 -1.69182971e-01 1.91998163e+00 -1.69182971e-01 -1.37813101e+01 2.60339430e+00 1.91998163e+00 2.60339430e+00 -6.35242014e+01
-2.11315939e+01 -6.23373985e-02 3.70991451e+00 -6.23373985e-02 -1.73474289e+01 4.97159570e+00 3.70991451e+00 4.97159570e+00 -6.99571915e+01
-2.21878786e+01 -7.63930142e-01 8.32419783e-01 -7.63930142e-01 -1.69166884e+01 4.74550450e+00 8.32419783e-01 4.74550450e+00 -7.08275757e+01
5.02500790e+00 8.54288340e-02 3.24192522e+00 8.54288340e-02 8.06416531e+00 -8.42713989e-01 3.24192522e+00 -8.42713989e-01 -1.46597571e+01
2.56756306e+00 -3.51931185e-01 2.14011177e+00 -3.51931185e-01 5.96847075e+00 -1.00080313e+00 2.14011177e+00 -1.00080313e+00 -2.01965544e+01
-1.28613655e+01 -1.03348152e+00 6.08716432e+00 -1.03348152e+00 -7.83459123e+00 7.83910436e+00 6.08716432e+00 7.83910436e+00 -4.77646449e+01
-1.88145635e+01 -3.76073289e+00 5.34581757e+00 -3.76073289e+00 -8.45714903e+00 1.03463829e+01 5.34581757e+00 1.03463829e+01 -8.13247347e+00
5.78454049e+00 -1.75354257e-02 2.78390909e+00 -1.75354257e-02 4.10583914e+00 1.45133828e+00 2.78390909e+00 1.45133828e+00 -1.76042639e+01
5.59606427e+00 6.61452010e-01 1.99886009e+00 6.61452010e-01 4.91454846e+00 1.93837380e+00 1.99886009e+00 1.93837380e+00 -1.83161433e+01
1.18912101e+01 -3.25307023e+00 2.67134255e+00 -3.25307023e+00 1.15040394e+01 2.94569388e+00 2.67134255e+00 2.94569388e+00 -1.90841770e+00
2.30218541e+01 -1.38595541e+00 -6.90388616e+00 -1.38595541e+00 2.42340682e+01 -7.12965012e-01 -6.90388616e+00 -7.12965012e-01 2.00862277e+01
4.07943615e+00 -1.35173609e+00 4.09095272e-01 -1.35173609e+00 2.79590143e+00 1.30775091e+00 4.09095272e-01 1.30775091e+00 -2.15680442e+01
7.52528715e+00 -8.44443083e-01 5.03979348e-01 -8.44443083e-01 5.20734042e+00 1.22320488e+00 5.03979348e-01 1.22320488e+00 -1.59361629e+01
1.35046227e+00 -2.23779043e+00 7.16297058e-01 -2.23779043e+00 6.94753557e-01 2.23709716e+00 7.16297058e-01 2.23709716e+00 -2.59701526e+01
-4.04160404e+00 8.91602397e-01 -3.29105330e+00 8.91602397e-01 -5.08028746e+00 4.25459084e+00 -3.29105330e+00 4.25459084e+00 -3.90042472e+01
8.87819946e-01 -8.84641409e-02 -6.79674855e-01 -8.84641409e-02 3.25468951e+00 -4.69810829e-01 -6.79674855e-01 -4.69810829e-01 -2.55344533e+01
1.23562264e+00 7.90878862e-01 4.54525232e-01 7.90878862e-01 1.52796078e+00 1.50467791e-02 4.54525232e-01 1.50467791e-02 -2.69303293e+01
-3.91021705e+00 4.50403914e-01 1.09103606e+00 4.50403914e-01 1.61603093e-02 -3.20026508e-01 1.09103606e+00 -3.20026508e-01 -3.42290144e+01
-3.24594154e+01 4.55110058e-01 1.72560662e-01 4.55110058e-01 -2.88066111e+01 4.50248325e+00 1.72560662e-01 4.50248325e+00 -9.72241173e+01
1.36511654e-01 -6.52473390e-01 5.05711734e-02 -6.52473390e-01 -8.96594971e-02 -1.30643355e-01 5.05711734e-02 -1.30643355e-01 -4.52040121e-01
-2.22811751e-01 -4.93825018e-01 -2.93655396e-01 -4.93825018e-01 1.61240380e-01 -7.71834701e-02 -2.93655396e-01 -7.71834701e-02 -3.43611848e-01
2.41999269e-01 -1.88685097e-01 3.19641229e-01 -1.88685097e-01 3.08595803e-01 2.30912331e-01 3.19641229e-01 2.30912331e-01 -9.55791116e-01
1.66047320e-01 -3.47413674e-01 -2.07004920e-01 -3.47413674e-01 -3.77514340e-01 -2.72570401e-01 -2.07004920e-01 -2.72570401e-01 -1.93773791e-01
-8.10484886e-02 2.75887945e-03 1.58825278e+00 2.75887945e-03 4.91705656e-01 -1.90459251e-01 1.58825278e+00 -1.90459251e-01 -2.94732018e+01
4.18778524e-01 1.17295258e-01 9.72488180e-01 1.17295258e-01 1.46235600e-01 3.52407640e-01 9.72488180e-01 3.52407640e-01 -2.93157830e+01
8.97573789e-01 -1.31665787e+00 1.50934400e+00 -1.31665787e+00 1.21048988e+00 4.40347737e-01 1.50934400e+00 4.40347737e-01 -2.74103103e+01
-7.04833120e-01 1.17039564e-01 1.51238915e+00 1.17039564e-01 7.07087606e-01 -8.58334854e-01 1.51238915e+00 -8.58334854e-01 -2.98912344e+01
2.94406849e+00 -1.34948562e+00 1.20520204e+00 -1.34948562e+00 1.71650112e-01 1.44543068e-01 1.20520204e+00 1.44543068e-01 -2.63887494e+01
3.02063233e+00 -1.86817935e+00 1.49703979e+00 -1.86817935e+00 1.40251787e+00 8.93596470e-01 1.49703979e+00 8.93596470e-01 -2.46206807e+01
5.13259500e+00 1.06834564e-01 4.09609511e-01 1.06834564e-01 3.82825851e-01 9.44068573e-01 4.09609511e-01 9.44068573e-01 -2.35863957e+01
4.77010887e+00 -7.55215652e-01 -2.27463316e-01 -7.55215652e-01 1.60030693e+00 -3.77833521e-01 -2.27463316e-01 -3.77833521e-01 -2.26811740e+01
7.19222385e+00 2.82593817e-01 -6.18737832e-01 2.82593817e-01 2.16851616e+00 -6.65731840e-02 -6.18737832e-01 -6.65731840e-02 -1.94008819e+01
2.21276164e-01 4.20087130e-01 -1.03081303e+00 4.20087130e-01 -2.24371773e+00 7.73062930e-02 -1.03081303e+00 7.73062930e-02 -3.17674628e+01
9.09778273e+00 2.45577864e-01 5.33948585e-01 2.45577864e-01 5.72425058e+00 -6.31609460e-01 5.33948585e-01 -6.31609460e-01 -1.37196196e+01