<VTKFile type="UnstructuredGrid" version="0.1" byte_order="LittleEndian">
<UnstructuredGrid>
<Piece NumberOfPoints="191" NumberOfCells="79">
<Points>
<DataArray type="Float64" NumberOfComponents="3" format="ascii">
 1.00088143e+00  5.01126719e+00  1.99576032e+00
 2.00187564e+00  5.01093292e+00  1.99726486e+00
 2.00155807e+00  6.01263809e+00  1.99582565e+00
 1.00048780e+00  6.01234674e+00  1.99478447e+00
 1.00068736e+00  5.01232815e+00  2.99395990e+00
 2.00169134e+00  5.01264095e+00  2.99409223e+00
 2.00076389e+00  6.01503849e+00  2.99224591e+00
 1.00037456e+00  6.01284885e+00  2.99365163e+00
 3.00303030e+00  5.01052952e+00  1.99794948e+00
 3.00320792e+00  6.01222944e+00  1.99659073e+00
 3.00391626e+00  5.01126099e+00  2.99484205e+00
 3.00731683e+00  6.01758862e+00  2.98501492e+00
 5.00325203e+00  5.01232147e+00  1.99999750e+00
 6.00325441e+00  5.01331758e+00  1.99996543e+00
 6.00224257e+00  6.01333332e+00  2.00003266e+00
 5.00222683e+00  6.01232433e+00  2.00004196e+00
 5.00327015e+00  5.01225996e+00  2.99998140e+00
 6.00326395e+00  5.01327372e+00  2.99997306e+00
 6.00225639e+00  6.01326466e+00  3.00002503e+00
 5.00226450e+00  6.01225424e+00  3.00005507e+00
 0.00000000e+00  0.00000000e+00  2.98450184e+00
 1.00278878e+00  0.00000000e+00  2.98396087e+00
 1.00268400e+00  1.00278831e+00  2.98512793e+00
 0.00000000e+00  1.00283611e+00  2.98564363e+00
 0.00000000e+00  0.00000000e+00  3.97919679e+00
 1.00409448e+00  0.00000000e+00  3.97909427e+00
 1.00413370e+00  1.00243163e+00  3.97912383e+00
 0.00000000e+00  1.00241005e+00  3.97997689e+00
 2.00607538e+00  0.00000000e+00  2.98225856e+00
 2.00533462e+00  1.00203383e+00  2.98397255e+00
 2.00790071e+00  0.00000000e+00  3.97819471e+00
 2.00807810e+00  1.00255024e+00  3.97746038e+00
 3.00922918e+00  0.00000000e+00  2.98070550e+00
 3.00923610e+00  1.00142074e+00  2.98131919e+00
 3.01150703e+00  0.00000000e+00  3.97626352e+00
 3.01141357e+00  1.00231421e+00  3.97587323e+00
 4.01295519e+00  0.00000000e+00  2.97912550e+00
 4.01293802e+00  1.00156331e+00  2.97845554e+00
 4.01447058e+00  0.00000000e+00  3.97467208e+00
 4.01449919e+00  1.00181639e+00  3.97391438e+00
 5.01601124e+00  0.00000000e+00  2.97704864e+00
 5.01633739e+00  1.00181210e+00  2.97731900e+00
 5.01682568e+00  0.00000000e+00  3.97406602e+00
 5.01694870e+00  1.00145769e+00  3.97273016e+00
 6.01829529e+00  0.00000000e+00  2.97611547e+00
 6.01895666e+00  1.00129712e+00  2.97657537e+00
 6.01846647e+00  0.00000000e+00  3.97378206e+00
 6.01915979e+00  1.00098848e+00  3.97274446e+00
 1.00156415e+00  2.00523210e+00  2.98775673e+00
 0.00000000e+00  2.00626183e+00  2.98824787e+00
 1.00411844e+00  2.00558734e+00  3.98245144e+00
 0.00000000e+00  2.00567269e+00  3.98297262e+00
 2.00457287e+00  2.00486040e+00  2.98368788e+00
 2.00872302e+00  2.00568819e+00  3.97858500e+00
 3.00810790e+00  2.00557685e+00  2.97948265e+00
 3.01180196e+00  2.00513411e+00  3.97214079e+00
 4.01338625e+00  2.00648689e+00  2.97962594e+00
 4.01404476e+00  2.00392151e+00  3.97084212e+00
 5.01728296e+00  2.00521970e+00  2.97829914e+00
 5.01731348e+00  2.00461268e+00  3.97194719e+00
 6.02030849e+00  2.00396514e+00  2.97800732e+00
 6.02055931e+00  2.00363660e+00  3.97188210e+00
 1.00076640e+00  3.00897455e+00  2.99232817e+00
 0.00000000e+00  3.00906014e+00  2.99076843e+00
 1.00273561e+00  3.00922942e+00  3.98489952e+00
 0.00000000e+00  3.00825119e+00  3.98920655e+00
 2.00409317e+00  3.00837684e+00  2.98816752e+00
 2.00927520e+00  3.00973129e+00  3.97632480e+00
 3.00335455e+00  3.00612879e+00  2.96342826e+00
 3.01452804e+00  3.00753164e+00  3.96904707e+00
 1.00058544e+00  4.01096916e+00  2.99422479e+00
 0.00000000e+00  4.01141024e+00  2.99348235e+00
 1.00122285e+00  4.01153040e+00  3.99108982e+00
 0.00000000e+00  4.01107264e+00  3.99180865e+00
 0.00000000e+00  5.01181555e+00  2.99428487e+00
 1.00146699e+00  5.01353264e+00  3.99291682e+00
 0.00000000e+00  5.01267290e+00  3.99174213e+00
 2.00156951e+00  4.01106501e+00  2.99675298e+00
 2.00430727e+00  4.01253843e+00  3.98898458e+00
 2.00502443e+00  5.01337242e+00  3.99123287e+00
 0.00000000e+00  6.01294422e+00  2.99269938e+00
 1.00261486e+00  6.01767063e+00  3.98616290e+00
 0.00000000e+00  6.01742458e+00  3.98892021e+00
 2.00634074e+00  6.02033377e+00  3.98391891e+00
 3.01132774e+00  5.01155567e+00  3.97387290e+00
 3.01555777e+00  6.01679420e+00  3.97662711e+00
 0.00000000e+00  0.00000000e+00  4.97269773e+00
 1.00533319e+00  0.00000000e+00  4.97226000e+00
 1.00569379e+00  1.00258505e+00  4.97309923e+00
 0.00000000e+00  1.00239158e+00  4.97318745e+00
 2.00972176e+00  0.00000000e+00  4.97166777e+00
 2.01037860e+00  1.00320911e+00  4.97201729e+00
 3.01298666e+00  0.00000000e+00  4.97109461e+00
 3.01339078e+00  1.00358093e+00  4.97039366e+00
 4.01530027e+00  0.00000000e+00  4.97022104e+00
 4.01530790e+00  1.00317383e+00  4.96967411e+00
 5.01722336e+00  0.00000000e+00  4.97004795e+00
 5.01702309e+00  1.00255251e+00  4.96946526e+00
 6.01894379e+00  0.00000000e+00  4.97007608e+00
 6.01907158e+00  1.00250554e+00  4.96969938e+00
 1.00698817e+00  2.00618696e+00  4.97306252e+00
 0.00000000e+00  2.00514507e+00  4.97503710e+00
 2.01205063e+00  2.00683832e+00  4.97064829e+00
 3.01477242e+00  2.00644040e+00  4.96877146e+00
 4.01588440e+00  2.00553560e+00  4.96693182e+00
 5.01691008e+00  2.00457430e+00  4.96619129e+00
 6.01798010e+00  2.00442600e+00  4.96648312e+00
 1.00758266e+00  3.00775909e+00  4.98014879e+00
 0.00000000e+00  3.00927997e+00  4.98222351e+00
 2.01382828e+00  3.00852275e+00  4.97007275e+00
 3.01676750e+00  3.00769877e+00  4.96594954e+00
 4.01537085e+00  3.00257230e+00  3.96235228e+00
 4.01746321e+00  3.00647593e+00  4.96526909e+00
 1.00621283e+00  4.00941896e+00  4.98805714e+00
 0.00000000e+00  4.00822258e+00  4.98637915e+00
 2.01552534e+00  4.01207256e+00  4.97168398e+00
 1.00686979e+00  5.01639366e+00  4.98049164e+00
 0.00000000e+00  5.01678228e+00  4.98258114e+00
 1.00755799e+00  6.02530146e+00  4.97914648e+00
 0.00000000e+00  6.02474880e+00  4.97875500e+00
 2.01302075e+00  5.01456404e+00  4.97523212e+00
 2.01769686e+00  6.02128458e+00  4.97544193e+00
 3.01753354e+00  5.01103878e+00  4.96713352e+00
 3.02264309e+00  6.01209259e+00  4.96846533e+00
 4.01087809e+00  5.00857353e+00  3.96103811e+00
 4.01663589e+00  6.00865078e+00  3.96283436e+00
 4.02009773e+00  5.00693941e+00  4.96493435e+00
 4.02251911e+00  6.00764275e+00  4.96525669e+00
 5.02037525e+00  5.00533390e+00  3.96521401e+00
 6.02038002e+00  5.00367451e+00  3.96520758e+00
 6.02202082e+00  6.00369644e+00  3.96519113e+00
 5.02197695e+00  6.00536489e+00  3.96526933e+00
 5.02037287e+00  5.00533199e+00  4.96522665e+00
 6.02039623e+00  5.00371885e+00  4.96521044e+00
 6.02202415e+00  6.00369072e+00  4.96519852e+00
 5.02212095e+00  6.00527239e+00  4.96525812e+00
 0.00000000e+00  0.00000000e+00  5.96522045e+00
 1.00578320e+00  0.00000000e+00  5.96522045e+00
 1.00649881e+00  1.00313318e+00  5.96522045e+00
 0.00000000e+00  1.00250220e+00  5.96522045e+00
 2.01052737e+00  0.00000000e+00  5.96522045e+00
 2.01116228e+00  1.00384998e+00  5.96522045e+00
 3.01352477e+00  0.00000000e+00  5.96522045e+00
 3.01411176e+00  1.00404930e+00  5.96522045e+00
 4.01541948e+00  0.00000000e+00  5.96522045e+00
 4.01578188e+00  1.00406778e+00  5.96522045e+00
 5.01737070e+00  0.00000000e+00  5.96522045e+00
 5.01702547e+00  1.00369489e+00  5.96522045e+00
 6.01969242e+00  0.00000000e+00  5.96522045e+00
 6.01856041e+00  1.00407267e+00  5.96522045e+00
 1.00814199e+00  2.00501657e+00  5.96522045e+00
 0.00000000e+00  2.00475240e+00  5.96522045e+00
 2.01344061e+00  2.00666833e+00  5.96522045e+00
 3.01566768e+00  2.00715876e+00  5.96522045e+00
 4.01670980e+00  2.00634980e+00  5.96522045e+00
 5.01691341e+00  2.00533128e+00  5.96522045e+00
 6.01723909e+00  2.00496459e+00  5.96522045e+00
 1.01055372e+00  3.01323628e+00  5.96522045e+00
 0.00000000e+00  3.01445627e+00  5.96522045e+00
 2.01655841e+00  3.01004457e+00  5.96522045e+00
 3.01751161e+00  3.00821161e+00  5.96522045e+00
 4.01753283e+00  3.00656843e+00  5.96522045e+00
 5.01759434e+00  3.00511408e+00  4.96507454e+00
 5.01765585e+00  3.00532269e+00  5.96522045e+00
 6.01769686e+00  3.00428367e+00  4.96512985e+00
 6.01766348e+00  3.00448942e+00  5.96522045e+00
 3.01898432e+00  4.00804329e+00  4.96412945e+00
 3.01928663e+00  4.00835609e+00  5.96522045e+00
 2.01984453e+00  4.01060724e+00  5.96522045e+00
 4.01891899e+00  4.00654030e+00  4.96534348e+00
 4.01883936e+00  4.00662565e+00  5.96522045e+00
 5.01874876e+00  4.00538969e+00  4.96522141e+00
 5.01878500e+00  4.00534916e+00  5.96522045e+00
 6.01879787e+00  4.00398874e+00  4.96519375e+00
 6.01878834e+00  4.00394011e+00  5.96522045e+00
 0.00000000e+00  4.00227737e+00  5.96522045e+00
 1.01705849e+00  4.00501490e+00  5.96522045e+00
 1.01106215e+00  5.02002811e+00  5.96522045e+00
 0.00000000e+00  5.02009201e+00  5.96522045e+00
 5.02030659e+00  5.00531101e+00  5.96522045e+00
 4.02023506e+00  5.00706482e+00  5.96522045e+00
 6.02041721e+00  5.00374937e+00  5.96522045e+00
 1.01209927e+00  6.02646971e+00  5.96522045e+00
 0.00000000e+00  6.02938986e+00  5.96522045e+00
 2.01549840e+00  5.01492977e+00  5.96522045e+00
 2.02208304e+00  6.01957417e+00  5.96522045e+00
 3.01945066e+00  5.01036596e+00  5.96522045e+00
 3.02406955e+00  6.01122046e+00  5.96522045e+00
 4.02274084e+00  6.00720787e+00  5.96522045e+00
 5.02210617e+00  6.00522375e+00  5.96522045e+00
 6.02202511e+00  6.00371075e+00  5.96522045e+00
</DataArray>
</Points>
<PointData Tensors="Stress_Components,Plastic_strain_components" Vevtors="Spatial_displacement,Reaction_force" Scalars="Equivalent_plastic_strain,Stress_Mises,Stress_Max_Principal,Stress_Mid_Principal,Stress_Min_Principal,Stress_Pressure,Stress_Tresca,Stress_Third_Invariant,Plastic_strain_Max_Principal,Plastic_strain_Min_Principal">
<DataArray type="Float32" Name="Stress_Components" NumberOfComponents="9" format="ascii">
1.39418654e+00 -2.89627272e+00 8.25601947e-01 -2.89627272e+00 5.23630425e-01 2.71625753e+00 8.25601947e-01 2.71625753e+00 -2.61725106e+01
6.13930896e-01 -2.62285015e+00 3.23909625e-01 -2.62285015e+00 2.95046099e-01 2.58486500e+00 3.23909625e-01 2.58486500e+00 -2.67991016e+01
-1.66024727e+00 -6.27966024e-01 1.38570768e+00 -6.27966024e-01 1.08413219e+00 -6.06187433e-02 1.38570768e+00 -6.06187433e-02 -3.15401971e+01
-1.53157696e+00 -2.14238800e-02 -1.91754898e+00 -2.14238800e-02 2.20804771e+00 -8.45157467e-01 -1.91754898e+00 -8.45157467e-01 -2.92017207e+01
5.05671845e+00 1.51726555e+00 3.73490480e+00 1.51726555e+00 6.53127358e+00 5.37407313e-01 3.73490480e+00 5.37407313e-01 -1.79239286e+01
3.34676540e+00 -1.45763234e+00 -1.88836767e+00 -1.45763234e+00 5.87532358e+00 3.00284245e+00 -1.88836767e+00 3.00284245e+00 -2.10349936e+01
-3.01444522e+00 2.27125472e+00 2.63473275e+00 2.27125472e+00 -3.30737075e+00 -3.75959629e+00 2.63473275e+00 -3.75959629e+00 -3.31234913e+01
-2.33592875e+00 2.63192664e+00 4.71892270e+00 2.63192664e+00 -3.40025067e-01 1.86930847e+00 4.71892270e+00 1.86930847e+00 -2.84082384e+01
2.07842720e+00 -1.86275691e-03 -3.70020003e+00 -1.86275691e-03 1.19112650e+00 3.52550954e+00 -3.70020003e+00 3.52550954e+00 -2.65645623e+01
-8.58378673e+00 -1.97069794e-02 2.45800260e+00 -1.97069794e-02 -8.06209779e+00 6.05867386e+00 2.45800260e+00 6.05867386e+00 -4.77858257e+01
-1.51387515e+01 3.50188700e+00 -1.36576662e+01 3.50188700e+00 -1.30416628e+01 4.85081553e+00 -1.36576662e+01 4.85081553e+00 -5.31415037e+01
-1.38246067e+01 7.34589767e+00 -9.42850137e+00 7.34589767e+00 -1.58064137e+01 -1.90507743e+00 -9.42850137e+00 -1.90507743e+00 -5.88263550e+01
6.42846376e-02 -5.96998096e-01 5.89956343e-02 -5.96998096e-01 7.46175051e-02 -7.97892436e-02 5.89956343e-02 -7.97892436e-02 -4.10814568e-01
-2.18730807e-01 -3.23566645e-01 -2.30529964e-01 -3.23566645e-01 3.07709679e-01 -1.69567302e-01 -2.30529964e-01 -1.69567302e-01 -3.60898021e-01
1.50738094e-01 -6.55248649e-02 2.96417259e-01 -6.55248649e-02 1.30205732e-01 2.21985012e-01 2.96417259e-01 2.21985012e-01 -5.52857459e-01
1.23601167e-01 -3.38978142e-01 -1.61848143e-01 -3.38978142e-01 -4.12950873e-01 -1.82572544e-01 -1.61848143e-01 -1.82572544e-01 1.74276866e-02
1.96277365e-01 1.62643820e-01 2.54575402e-01 1.62643820e-01 2.31494680e-01 2.14226112e-01 2.54575402e-01 2.14226112e-01 -2.36631468e-01
-9.10258442e-02 1.25692725e-01 1.60396084e-01 1.25692725e-01 -1.94227010e-01 2.77862865e-02 1.60396084e-01 2.77862865e-02 4.76412773e-01
7.39866048e-02 5.64953238e-02 -3.42186064e-01 5.64953238e-02 4.47623506e-02 -3.40861171e-01 -3.42186064e-01 -3.40861171e-01 7.24049956e-02
-2.60916561e-01 9.34167132e-02 7.88213834e-02 9.34167132e-02 -1.51770830e-01 1.56344116e-01 7.88213834e-02 1.56344116e-01 6.03832126e-01
6.28499418e-01 2.42748676e-04 2.01224864e+00 2.42748676e-04 8.68644923e-01 -8.03665906e-01 2.01224864e+00 -8.03665906e-01 -2.82044716e+01
8.29662722e-01 -7.44392816e-02 1.97621152e+00 -7.44392816e-02 7.59040713e-02 3.89303267e-03 1.97621152e+00 3.89303267e-03 -2.88042498e+01
3.24689822e-01 -1.75474960e+00 2.47234920e+00 -1.75474960e+00 2.24877945e-01 7.43638664e-01 2.47234920e+00 7.43638664e-01 -2.88018897e+01
-4.97629412e-01 4.14658552e-02 2.22558430e+00 4.14658552e-02 1.05111539e+00 -9.10897732e-01 2.22558430e+00 -9.10897732e-01 -2.90731778e+01
2.23849332e+00 -3.36220110e-05 1.52843696e+00 -3.36220110e-05 -3.21181345e+00 1.63963009e-02 1.52843696e+00 1.63963009e-02 -3.05438509e+01
1.75375080e+00 5.52537497e-02 1.36619799e-01 5.52537497e-02 -3.11295271e+00 1.47207341e+00 1.36619799e-01 1.47207341e+00 -3.10013890e+01
1.17448694e+00 1.05456079e-01 2.33898444e+00 1.05456079e-01 -2.79816001e+00 4.78221525e-01 2.33898444e+00 4.78221525e-01 -3.08724639e+01
9.48724791e-01 5.28880451e-02 2.47413817e+00 5.28880451e-02 -3.09779254e+00 -1.31491351e+00 2.47413817e+00 -1.31491351e+00 -3.15122914e+01
2.37512538e+00 -1.59078544e+00 3.25592315e+00 -1.59078544e+00 -1.84661648e+00 2.48806583e-01 3.25592315e+00 2.48806583e-01 -2.85688171e+01
1.00733135e+00 -2.69672486e+00 1.52416342e+00 -2.69672486e+00 -1.89029236e+00 5.64567048e-01 1.52416342e+00 5.64567048e-01 -3.01130919e+01
1.58867349e+00 4.07363787e-01 -1.10681508e+00 4.07363787e-01 -2.40424500e+00 7.74812695e-01 -1.10681508e+00 7.74812695e-01 -3.06411366e+01
1.42414568e-01 5.70033139e-01 1.40537207e+00 5.70033139e-01 -2.33940341e+00 1.82398669e+00 1.40537207e+00 1.82398669e+00 -3.21617148e+01
4.09149820e+00 9.53435134e-02 1.20151716e+00 9.53435134e-02 -3.55000085e+00 1.30176769e+00 1.20151716e+00 1.30176769e+00 -2.83828444e+01
7.39982262e-01 -1.29310939e+00 -8.33038144e-01 -1.29310939e+00 -2.87651750e+00 -1.11049725e+00 -8.33038144e-01 -1.11049725e+00 -3.14975734e+01
1.91644712e+00 -2.71480564e-01 -3.85752350e-01 -2.71480564e-01 -1.73660919e+00 4.74010865e-01 -3.85752350e-01 4.74010865e-01 -2.96877532e+01
-1.47891304e-01 -3.87149069e-01 -1.31453715e+00 -3.87149069e-01 -2.38034432e+00 5.96059038e-01 -1.31453715e+00 5.96059038e-01 -3.24030161e+01
4.74793988e+00 2.05271528e-03 -1.33190355e+00 2.05271528e-03 -2.82378288e+00 -4.12305467e-01 -1.33190355e+00 -4.12305467e-01 -2.70782971e+01
-1.07065096e+00 6.46213550e-01 -6.86614875e-01 6.46213550e-01 -2.62984005e+00 -2.26741821e-01 -6.86614875e-01 -2.26741821e-01 -3.34515727e+01
2.36058068e+00 4.84632822e-02 -1.66382605e+00 4.84632822e-02 -1.20875491e+00 3.48676816e-01 -1.66382605e+00 3.48676816e-01 -2.84868631e+01
2.14595953e+00 -1.37516745e+00 -2.02714542e+00 -1.37516745e+00 -1.11766991e+00 -9.96892586e-01 -2.02714542e+00 -9.96892586e-01 -2.83007481e+01
4.13986510e+00 7.77877882e-01 8.75657037e-01 7.77877882e-01 -1.22495562e-01 -1.27184712e+00 8.75657037e-01 -1.27184712e+00 -2.53526044e+01
6.98350981e-01 8.49520687e-01 -3.32816490e-02 8.49520687e-01 -1.07296368e+00 1.87876247e-01 -3.32816490e-02 1.87876247e-01 -3.02780099e+01
2.86408728e+00 2.68065125e-01 -3.69020468e+00 2.68065125e-01 -1.80683583e-02 4.58082326e-01 -3.69020468e+00 4.58082326e-01 -2.60966330e+01
4.93174467e-01 -4.64176268e-01 -1.76744835e+00 -4.64176268e-01 1.44830663e-01 -6.84737213e-01 -1.76744835e+00 -6.84737213e-01 -2.88481886e+01
5.41298103e+00 1.65927953e+00 1.37429047e+00 1.65927953e+00 -3.42454016e-01 -1.65440938e+00 1.37429047e+00 -1.65440938e+00 -2.36998606e+01
3.32977322e+00 8.61044519e-01 1.69838129e-01 8.61044519e-01 3.00669849e-01 -1.11406606e+00 1.69838129e-01 -1.11406606e+00 -2.58093672e+01
4.20077944e+00 2.20666724e+00 -3.31110835e+00 2.20666724e+00 -8.69187266e-02 -2.36851528e-01 -3.31110835e+00 -2.36851528e-01 -2.45698872e+01
2.46168590e+00 1.42546007e+00 -9.46385443e-01 1.42546007e+00 1.20311975e-02 3.56543288e-02 -9.46385443e-01 3.56543288e-02 -2.68548446e+01
-2.19315638e+00 -3.14621790e+00 5.27298534e+00 -3.14621790e+00 7.31195834e-01 -1.01478179e+00 5.27298534e+00 -1.01478179e+00 -2.78575940e+01
-1.50359000e+00 -2.05048805e+00 3.59300059e+00 -2.05048805e+00 4.04798490e+00 -7.45096266e-01 3.59300059e+00 -7.45096266e-01 -2.59397044e+01
-1.15745025e+00 -8.46362010e-01 5.08635774e+00 -8.46362010e-01 -4.29672321e+00 1.15071665e+00 5.08635774e+00 1.15071665e+00 -3.41463327e+01
3.34892169e-01 -1.26698714e-01 5.53577876e+00 -1.26698714e-01 -3.18234766e+00 -4.09430616e-01 5.53577876e+00 -4.09430616e-01 -3.10263729e+01
-1.38444647e+00 -6.68017081e-01 2.40323610e+00 -6.68017081e-01 -1.91773158e+00 -1.73586005e+00 2.40323610e+00 -1.73586005e+00 -3.42300336e+01
-5.62385321e-02 6.60835470e-01 1.22682130e+00 6.60835470e-01 -1.11185738e+00 -1.77175499e+00 1.22682130e+00 -1.77175499e+00 -3.09841268e+01
-1.09354242e+01 -1.28049467e+00 -7.79047689e+00 -1.28049467e+00 -1.22964664e+01 4.47491014e-01 -7.79047689e+00 4.47491014e-01 -5.12982841e+01
-2.24328045e-01 1.26738679e+00 -5.24791309e+00 1.26738679e+00 -4.19497226e-01 -9.37473842e-01 -5.24791309e+00 -9.37473842e-01 -2.87645701e+01
-8.73156977e+00 2.63115197e-01 -1.75186259e+00 2.63115197e-01 -7.27371466e+00 1.71146265e+00 -1.75186259e+00 1.71146265e+00 -4.72636061e+01
-2.36400967e+00 -8.48037153e-01 -8.69835434e+00 -8.48037153e-01 -8.16180444e+00 2.19343262e+00 -8.69835434e+00 2.19343262e+00 -3.64848198e+01
-3.75379395e+00 -4.82971065e-01 -8.92865852e-01 -4.82971065e-01 -3.70176423e+00 6.95106864e-01 -8.92865852e-01 6.95106864e-01 -3.79237909e+01
-4.98698854e+00 4.76337314e-01 -2.42446572e+00 4.76337314e-01 -5.17587483e+00 1.85280858e-01 -2.42446572e+00 1.85280858e-01 -4.12073660e+01
-3.54178548e-02 9.40176621e-02 -6.82374775e-01 9.40176621e-02 -1.03243494e+00 1.38561130e-02 -6.82374775e-01 1.38561130e-02 -3.09720602e+01
-3.55039370e+00 9.39073652e-01 -1.43520427e+00 9.39073652e-01 -5.81771994e+00 -2.81375536e+00 -1.43520427e+00 -2.81375536e+00 -3.95253906e+01
-5.34228827e+00 -1.65466035e+00 6.44605742e+00 -1.65466035e+00 -1.01080779e+00 -2.39834241e-01 6.44605742e+00 -2.39834241e-01 -3.13137757e+01
-8.46563622e-01 1.67883899e-01 5.14776427e+00 1.67883899e-01 7.57399827e+00 3.38512850e+00 5.14776427e+00 3.38512850e+00 -1.97381281e+01
1.86250516e+00 -9.43516540e-01 4.95098920e+00 -9.43516540e-01 -1.63871244e+00 -2.68918536e+00 4.95098920e+00 -2.68918536e+00 -2.74173451e+01
1.10706295e+00 1.35341293e+00 7.22904193e+00 1.35341293e+00 7.02299777e-01 -6.19055772e+00 7.22904193e+00 -6.19055772e+00 -2.27485268e+01
-1.75516539e+01 -3.39716682e+00 9.04315603e+00 -3.39716682e+00 -1.53992555e+01 -8.02782673e+00 9.04315603e+00 -8.02782673e+00 -5.89564934e+01
-3.75677245e+00 -1.05054688e+00 7.31425762e-01 -1.05054688e+00 -9.90201027e+00 -4.09870224e+00 7.31425762e-01 -4.09870224e+00 -4.28817589e+01
-2.56195774e+01 -9.71649075e+00 -2.15541859e+01 -9.71649075e+00 -2.19518261e+01 -1.81970291e+01 -2.15541859e+01 -1.81970291e+01 -1.03156662e+01
1.29823194e+01 -1.74698045e+00 -5.81114674e+00 -1.74698045e+00 9.56083059e+00 -5.22876469e+00 -5.81114674e+00 -5.22876469e+00 -4.54108810e+00
-1.48027089e+00 -1.00730560e+00 3.55419440e+00 -1.00730560e+00 4.19275754e+00 4.61744238e+00 3.55419440e+00 4.61744238e+00 -2.39593885e+01
-7.17005730e-02 -1.77049884e+00 6.92486316e+00 -1.77049884e+00 4.65320849e+00 2.13768169e+00 6.92486316e+00 2.13768169e+00 -1.93640494e+01
4.54555686e+00 -5.19123673e-03 6.19131107e+00 -5.19123673e-03 5.18364612e+00 1.55089578e+00 6.19131107e+00 1.55089578e+00 -1.49920507e+01
6.74636590e+00 6.10937253e-01 6.29979081e-01 6.10937253e-01 1.08073246e+01 -7.97059469e-01 6.29979081e-01 -7.97059469e-01 -1.13680339e+01
2.58202261e+00 2.53344825e+00 4.09482658e-01 2.53344825e+00 4.35907835e+00 -1.62330458e+00 4.09482658e-01 -1.62330458e+00 -2.04205637e+01
-2.32713148e+00 2.57221908e+00 -6.75035409e-01 2.57221908e+00 -4.45988476e-01 3.35249923e+00 -6.75035409e-01 3.35249923e+00 -2.69882499e+01
4.06694710e-01 1.66689512e+00 1.09520379e+00 1.66689512e+00 6.11674595e+00 2.28057650e+00 1.09520379e+00 2.28057650e+00 -2.16799686e+01
-1.17257111e+01 -2.72861257e-01 -1.75551057e-01 -2.72861257e-01 -3.52766526e+00 1.00932465e+01 -1.75551057e-01 1.00932465e+01 -3.01652815e+01
-1.71468191e+01 -1.02459013e+00 1.11507292e+01 -1.02459013e+00 -2.41779299e+01 6.40503287e+00 1.11507292e+01 6.40503287e+00 -6.95056915e+01
-8.93890568e+00 1.93359983e-01 -4.08965645e+00 1.93359983e-01 -8.50135705e+00 -2.28297524e+00 -4.08965645e+00 -2.28297524e+00 -4.30876095e+01
-3.97789603e+00 -4.59454343e-01 2.68369210e+00 -4.59454343e-01 2.54905427e+00 3.92684722e+00 2.68369210e+00 3.92684722e+00 -2.91118946e+01
1.64543581e+00 2.87701228e+00 -9.86899585e-01 2.87701228e+00 3.95478588e+00 8.94707806e-01 -9.86899585e-01 8.94707806e-01 -2.51980624e+01
-5.60847151e+00 -2.14014485e-01 4.27940226e+00 -2.14014485e-01 1.38601726e+00 -4.18500221e+00 4.27940226e+00 -4.18500221e+00 -3.31965580e+01
-5.30908492e+00 5.03701150e-01 -4.10356760e+00 5.03701150e-01 -4.82715708e+00 4.50939366e+00 -4.10356760e+00 4.50939366e+00 -3.82051940e+01
-1.37202788e+01 2.35530651e+00 2.32460149e+00 2.35530651e+00 -8.84795695e+00 -1.10449295e+01 2.32460149e+00 -1.10449295e+01 -5.31072718e+01
-3.45600923e+00 -1.32790470e+00 -1.44292478e+00 -1.32790470e+00 -4.71856149e+00 -2.88173264e+00 -1.44292478e+00 -2.88173264e+00 -3.82037563e+01
2.07044911e+00 1.23603875e-03 5.18320858e-01 1.23603875e-03 -6.39274740e+00 -7.11052656e-01 5.18320858e-01 -7.11052656e-01 -3.35056343e+01
1.19438320e+00 5.13352111e-01 1.32365665e+00 5.13352111e-01 -5.43871164e+00 5.07301444e-01 1.32365665e+00 5.07301444e-01 -3.37509680e+01
1.06299842e+00 1.76093675e+00 1.21760347e+00 1.76093675e+00 -4.80128491e+00 1.01223681e+00 1.21760347e+00 1.01223681e+00 -3.31386466e+01
2.05097830e+00 2.42912199e-01 1.58454758e+00 2.42912199e-01 -6.43120909e+00 5.79024591e-02 1.58454758e+00 5.79024591e-02 -3.34912291e+01
-1.01540038e+00 1.12459230e+00 6.34345680e-01 1.12459230e+00 -2.81426805e+00 1.36501046e+00 6.34345680e-01 1.36501046e+00 -3.38917193e+01
-7.37697287e-01 2.63740559e+00 4.95361008e-01 2.63740559e+00 -1.82756797e+00 4.40054357e-01 4.95361008e-01 4.40054357e-01 -3.20372384e+01
-2.48662642e+00 7.67939925e-01 -1.10025910e+00 7.67939925e-01 3.83466139e-01 5.00849150e-01 -1.10025910e+00 5.00849150e-01 -3.20786691e+01
-2.17088221e+00 1.65752755e+00 -4.08094300e-01 1.65752755e+00 8.43173192e-01 5.94221932e-01 -4.08094300e-01 5.94221932e-01 -3.08984873e+01
-2.04540539e+00 1.63108157e-02 -6.90646216e-01 1.63108157e-02 2.25709331e+00 -1.31692732e-01 -6.90646216e-01 -1.31692732e-01 -2.95662484e+01
-1.86824300e+00 -3.82924660e-01 -9.16892976e-01 -3.82924660e-01 2.47874586e+00 3.54716912e-01 -9.16892976e-01 3.54716912e-01 -2.87959340e+01
-7.70057783e-01 -5.23219436e-01 -1.16226682e+00 -5.23219436e-01 2.57589141e+00 5.80399853e-01 -1.16226682e+00 5.80399853e-01 -2.79073272e+01
-4.90170946e-01 -1.31126079e+00 -2.04141378e+00 -1.31126079e+00 1.64773921e+00 -1.17685087e-01 -2.04141378e+00 -1.17685087e-01 -2.80608337e+01
-6.61191583e-01 3.80456761e-01 -1.01782191e+00 3.80456761e-01 3.20192659e+00 1.42204970e+00 -1.01782191e+00 1.42204970e+00 -2.71295309e+01
-1.11139268e-01 -1.60063419e+00 -1.03278887e+00 -1.60063419e+00 4.96078946e-01 -5.27887974e-01 -1.03278887e+00 -5.27887974e-01 -2.92777939e+01
1.13409973e+00 2.17513278e+00 3.12748392e+00 2.17513278e+00 -6.54916257e+00 8.87353197e-02 3.12748392e+00 8.87353197e-02 -3.36310641e+01
2.63598540e-01 1.33166993e+00 4.23642373e+00 1.33166993e+00 -8.03291386e+00 -2.13991326e+00 4.23642373e+00 -2.13991326e+00 -3.58009691e+01
1.84582185e+00 2.67827624e+00 -6.96923966e-01 2.67827624e+00 -1.24675900e+00 4.88592029e-01 -6.96923966e-01 4.88592029e-01 -2.87642465e+01
2.52568723e+00 2.55377389e+00 -2.59562255e+00 2.55377389e+00 3.40263618e+00 1.26035169e-01 -2.59562255e+00 1.26035169e-01 -2.18883697e+01
1.42134508e+00 1.12521807e+00 -3.07041768e+00 1.12521807e+00 5.73114787e+00 -7.11326783e-01 -3.07041768e+00 -7.11326783e-01 -2.25149897e+01
2.94593473e-02 -6.10552271e-01 -6.04433035e+00 -6.10552271e-01 1.66082374e+00 -1.58499264e+00 -6.04433035e+00 -1.58499264e+00 -2.53469189e+01
6.08870983e-02 -3.77233378e+00 -7.50776736e+00 -3.77233378e+00 -2.90162269e+00 -4.07763386e+00 -7.50776736e+00 -4.07763386e+00 -2.74219182e+01
2.81437774e-01 -7.09800055e-01 8.84932693e+00 -7.09800055e-01 -1.14213439e+01 -1.86693710e+00 8.84932693e+00 -1.86693710e+00 -3.44408533e+01
-4.28041045e+00 -1.90048997e+00 9.32825518e+00 -1.90048997e+00 -1.70176913e+01 -2.70838881e+00 9.32825518e+00 -2.70838881e+00 -4.53319677e+01
3.97127899e+00 2.45098857e+00 1.09993020e+00 2.45098857e+00 -1.68068324e+00 -3.61863127e+00 1.09993020e+00 -3.61863127e+00 -2.62254998e+01
5.80840399e+00 4.59414879e+00 -7.06553849e+00 4.59414879e+00 2.13705985e+00 -3.26478157e+00 -7.06553849e+00 -3.26478157e+00 -1.45745383e+01
-1.23449659e+01 -1.02036285e+01 -1.28652592e+01 -1.02036285e+01 -2.54641647e+01 -1.77361221e+01 -1.28652592e+01 -1.77361221e+01 6.78276348e+00
1.19165585e+01 2.17697144e+00 -4.96999891e+00 2.17697144e+00 7.52110152e+00 -8.50708258e-01 -4.96999891e+00 -8.50708258e-01 -1.10738721e+00
-1.57559207e+00 1.34305367e+00 -2.24484563e-01 1.34305367e+00 -8.34157251e+00 3.30640030e+00 -2.24484563e-01 3.30640030e+00 -3.00983372e+01
1.48694658e+00 1.55426989e+00 -3.68293589e+00 1.55426989e+00 -2.58669587e+00 2.21107813e+00 -3.68293589e+00 2.21107813e+00 -2.83619041e+01
-1.21838655e+01 -2.75899649e-01 1.49079999e+00 -2.75899649e-01 -1.85061276e+01 -6.09451413e+00 1.49079999e+00 -6.09451413e+00 -6.77780838e+01
-5.01023353e+00 -4.02493041e-01 -1.81893190e-01 -4.02493041e-01 -1.95520326e+00 1.78222752e+00 -1.81893190e-01 1.78222752e+00 -3.77109414e+01
-2.17323434e+00 -4.07735139e-01 5.32407952e-01 -4.07735139e-01 4.60908473e-01 -1.21317968e+00 5.32407952e-01 -1.21317968e+00 -3.22645848e+01
-2.31757092e+00 -9.68725204e-01 2.46053322e+00 -9.68725204e-01 -2.66724485e+00 2.50145167e+00 2.46053322e+00 2.50145167e+00 -3.43049650e+01
-7.44343996e-01 3.64013299e-01 1.99010451e+00 3.64013299e-01 -3.58195305e-01 5.02552800e-02 1.99010451e+00 5.02552800e-02 -3.11324711e+01
-8.20408618e+00 1.96258864e+00 1.34503830e-01 1.96258864e+00 -5.77044511e+00 -1.98728687e+00 1.34503830e-01 -1.98728687e+00 -4.52459257e+01
-1.78700060e+00 -1.99394275e+00 -5.49622178e-01 -1.99394275e+00 -2.80122952e+00 2.63469428e+00 -5.49622178e-01 2.63469428e+00 -3.39763265e+01
1.11865653e+01 2.42200971e+00 1.47750989e+00 2.42200971e+00 2.44799253e+00 -8.03783361e-01 1.47750989e+00 -8.03783361e-01 -1.73261667e+01
2.60578758e+00 -1.19140363e+00 -1.11124475e+00 -1.19140363e+00 3.46750802e+00 -2.37614380e+00 -1.11124475e+00 -2.37614380e+00 -2.35302143e+01
4.77862692e+00 7.48655033e+00 2.82599282e+00 7.48655033e+00 1.29734097e+01 -1.47263536e+01 2.82599282e+00 -1.47263536e+01 3.21221085e+01
-9.74838078e-01 -5.10446882e+00 2.88667035e+00 -5.10446882e+00 -2.67115998e+00 -2.04928913e+01 2.88667035e+00 -2.04928913e+01 2.19097972e+00
4.19887984e+00 -2.35877728e+00 -1.21546865e-01 -2.35877728e+00 2.45640278e-02 6.37573195e+00 -1.21546865e-01 6.37573195e+00 -1.36692232e+00
-1.93593168e+00 -7.04039888e+00 -2.46791218e+00 -7.04039888e+00 1.20122015e+01 -1.60345197e+00 -2.46791218e+00 -1.60345197e+00 3.72297390e+00
-7.16785848e-01 -1.20596325e+00 1.11289918e+00 -1.20596325e+00 3.85796070e-01 -1.77028447e-01 1.11289918e+00 -1.77028447e-01 -4.35463339e-01
-4.53572482e-01 -3.94583821e-01 5.84625065e-01 -3.94583821e-01 2.76215553e-01 2.09833249e-01 5.84625065e-01 2.09833249e-01 -5.89119911e-01
5.67250550e-01 -5.80913305e-01 -4.67730522e-01 -5.80913305e-01 -3.25790703e-01 -1.55820346e+00 -4.67730522e-01 -1.55820346e+00 -1.00790727e+00
6.99728727e-01 -1.39260185e+00 -7.73886502e-01 -1.39260185e+00 1.79235861e-01 1.37337136e+00 -7.73886502e-01 1.37337136e+00 -1.64543831e+00
5.21415772e+00 2.09844372e+00 2.14446038e-01 2.09844372e+00 -2.29524355e+00 1.26426618e+00 2.14446038e-01 1.26426618e+00 -1.46732211e-01
6.28829936e-01 9.89899039e-02 6.81817919e-01 9.89899039e-02 -4.88410091e+00 6.71638437e-02 6.81817919e-01 6.71638437e-02 -8.70160311e-02
-3.50697839e+00 9.57922786e-01 -1.03406489e-01 9.57922786e-01 -6.55913055e-01 -1.19773895e+00 -1.03406489e-01 -1.19773895e+00 1.08619016e+00
-4.93022279e+00 -2.05030258e+00 -7.24279801e-01 -2.05030258e+00 2.19797830e+00 1.22626945e-01 -7.24279801e-01 1.22626945e-01 2.55408068e+00
1.87752855e+00 -1.00748986e-03 -5.45382500e-05 -1.00748986e-03 -7.07517672e+00 -7.05715269e-04 -5.45382500e-05 -7.05715269e-04 -3.43732567e+01
7.59948436e-01 1.10244209e+00 9.11038369e-05 1.10244209e+00 -5.23764181e+00 5.77073723e-01 9.11038369e-05 5.77073723e-01 -3.42070427e+01
9.07139346e-01 2.57935417e+00 7.48227194e-01 2.57935417e+00 -6.98793960e+00 1.11623651e+00 7.48227194e-01 1.11623651e+00 -3.50346198e+01
2.11625245e+00 8.94929707e-01 5.83047345e-02 8.94929707e-01 -8.41934967e+00 1.89070590e-03 5.83047345e-02 1.89070590e-03 -3.50970211e+01
-1.90107395e+00 9.03064758e-01 5.60641987e-04 9.03064758e-01 -1.80752841e+00 1.31750840e+00 5.60641987e-04 1.31750840e+00 -3.37663555e+01
-1.44143081e+00 2.93778732e+00 9.83693913e-01 2.93778732e+00 -2.59880069e+00 1.10204458e+00 9.83693913e-01 1.10204458e+00 -3.35019298e+01
-4.28394437e+00 1.05951005e+00 -5.42102032e-04 1.05951005e+00 1.28265470e+00 9.29516137e-01 -5.42102032e-04 9.29516137e-01 -3.26034985e+01
-2.79461817e+00 2.21590433e+00 8.57700482e-01 2.21590433e+00 1.85406055e+00 1.33395475e+00 8.57700482e-01 1.33395475e+00 -3.00651913e+01