<VTKFile type="UnstructuredGrid" version="0.1" byte_order="LittleEndian">
<UnstructuredGrid>
<Piece NumberOfPoints="173" NumberOfCells="80">
<Points>
<DataArray type="Float64" NumberOfComponents="3" format="ascii">
 0.00000000e+00  0.00000000e+00  0.00000000e+00
 1.02378964e+00  0.00000000e+00  0.00000000e+00
 1.02587390e+00  1.04909325e+00  0.00000000e+00
 0.00000000e+00  1.04679859e+00  0.00000000e+00
 0.00000000e+00  0.00000000e+00  9.42689657e-01
 1.02377439e+00  0.00000000e+00  9.40197587e-01
 1.02424693e+00  1.04526269e+00  9.43245351e-01
 0.00000000e+00  1.04457474e+00  9.45592165e-01
 2.05135703e+00  0.00000000e+00  0.00000000e+00
 2.05204463e+00  1.05376422e+00  0.00000000e+00
 2.05030298e+00  0.00000000e+00  9.34206367e-01
 2.05191970e+00  1.04802358e+00  9.38263714e-01
 3.08034921e+00  0.00000000e+00  0.00000000e+00
 3.08308363e+00  1.06045699e+00  0.00000000e+00
 3.08444571e+00  0.00000000e+00  9.28146839e-01
 3.08108568e+00  1.05097032e+00  9.30689096e-01
 4.11999655e+00  0.00000000e+00  0.00000000e+00
 4.11247635e+00  1.06591225e+00  0.00000000e+00
 4.12327099e+00  0.00000000e+00  9.21377778e-01
 4.11492348e+00  1.05199945e+00  9.24953163e-01
 5.16168308e+00  0.00000000e+00  0.00000000e+00
 5.15007305e+00  1.07115650e+00  0.00000000e+00
 5.16494179e+00  0.00000000e+00  9.13016737e-01
 5.15687561e+00  1.05445838e+00  9.19574976e-01
 6.20860577e+00  0.00000000e+00  0.00000000e+00
 6.17984962e+00  1.09073329e+00  0.00000000e+00
 6.20479822e+00  0.00000000e+00  9.09995675e-01
 6.19784641e+00  1.07058501e+00  9.09453392e-01
 1.02879751e+00  2.08606672e+00  0.00000000e+00
 0.00000000e+00  2.08440351e+00  0.00000000e+00
 1.02603579e+00  2.08340812e+00  9.51974511e-01
 0.00000000e+00  2.08093500e+00  9.52833056e-01
 2.05746794e+00  2.09481025e+00  0.00000000e+00
 2.05239511e+00  2.08820295e+00  9.51846778e-01
 3.08035541e+00  2.10231781e+00  0.00000000e+00
 3.07665515e+00  2.09414434e+00  9.58039522e-01
 4.09991693e+00  2.11517739e+00  0.00000000e+00
 4.10219622e+00  2.09603405e+00  9.55774963e-01
 5.11341858e+00  2.11898875e+00  0.00000000e+00
 5.12376833e+00  2.10031438e+00  9.58244085e-01
 6.13333416e+00  2.14321208e+00  0.00000000e+00
 6.15117931e+00  2.12408376e+00  9.57897782e-01
 1.03100491e+00  3.10802007e+00  0.00000000e+00
 0.00000000e+00  3.10592031e+00  0.00000000e+00
 1.02753270e+00  3.10865140e+00  9.62332129e-01
 0.00000000e+00  3.10749173e+00  9.61928070e-01
 2.06070447e+00  3.11013532e+00  0.00000000e+00
 2.05459809e+00  3.11103821e+00  9.72217202e-01
 3.07694864e+00  3.11698127e+00  0.00000000e+00
 3.07330298e+00  3.11451483e+00  9.90610480e-01
 4.08037663e+00  3.12341166e+00  0.00000000e+00
 4.07623625e+00  3.11496782e+00  1.00279999e+00
 5.09051418e+00  3.11956501e+00  0.00000000e+00
 5.09100723e+00  3.10978532e+00  1.00785160e+00
 6.09286785e+00  3.14650369e+00  0.00000000e+00
 6.09582758e+00  3.14288330e+00  1.00297821e+00
 1.03210902e+00  4.11924553e+00  0.00000000e+00
 0.00000000e+00  4.12132645e+00  0.00000000e+00
 1.02783489e+00  4.12101173e+00  9.67543602e-01
 0.00000000e+00  4.12363958e+00  9.65654135e-01
 2.05939674e+00  4.11790419e+00  0.00000000e+00
 2.05322886e+00  4.11623096e+00  9.78261650e-01
 3.07233596e+00  4.11737108e+00  0.00000000e+00
 3.06725979e+00  4.11595774e+00  9.95520234e-01
 4.07066250e+00  4.12178040e+00  0.00000000e+00
 4.07032156e+00  4.12172699e+00  1.00002098e+00
 6.07067966e+00  4.12832594e+00  0.00000000e+00
 5.07068491e+00  4.12478256e+00  0.00000000e+00
 6.07079363e+00  4.12838888e+00  9.99791622e-01
 5.07076740e+00  4.12477827e+00  1.00003183e+00
 1.03039038e+00  5.13067722e+00  0.00000000e+00
 0.00000000e+00  5.13582897e+00  0.00000000e+00
 1.02792239e+00  5.13442850e+00  9.65843737e-01
 0.00000000e+00  5.13637257e+00  9.61180329e-01
 2.05732369e+00  5.12212515e+00  0.00000000e+00
 2.04857779e+00  5.12390518e+00  9.75806892e-01
 3.06680489e+00  5.11824656e+00  0.00000000e+00
 3.06319761e+00  5.11920500e+00  9.95254993e-01
 4.06755114e+00  5.12178230e+00  0.00000000e+00
 4.06737709e+00  5.12178135e+00  1.00026572e+00
 5.06742239e+00  5.12490511e+00  0.00000000e+00
 5.06751871e+00  5.12488937e+00  1.00001740e+00
 6.06751823e+00  5.12806988e+00  0.00000000e+00
 6.06753778e+00  5.12800980e+00  9.99990225e-01
 1.03394783e+00  6.15022135e+00  0.00000000e+00
 0.00000000e+00  6.15277624e+00  0.00000000e+00
 1.03012741e+00  6.14985800e+00  9.59237933e-01
 0.00000000e+00  6.15621185e+00  9.54674125e-01
 2.06222439e+00  6.13407230e+00  0.00000000e+00
 2.04958129e+00  6.14412975e+00  9.64676857e-01
 3.06722903e+00  6.12205267e+00  0.00000000e+00
 3.06482697e+00  6.13020372e+00  9.87722874e-01
 4.06521511e+00  6.12220383e+00  0.00000000e+00
 4.06473589e+00  6.12219810e+00  1.00043881e+00
 5.06443834e+00  6.12478828e+00  0.00000000e+00
 5.06454563e+00  6.12485886e+00  9.99977708e-01
 6.06440401e+00  6.12801933e+00  0.00000000e+00
 6.06443071e+00  6.12798357e+00  9.99999762e-01
 0.00000000e+00  0.00000000e+00  1.89061046e+00
 1.02528310e+00  0.00000000e+00  1.88522291e+00
 1.02439201e+00  1.03740549e+00  1.89070511e+00
 0.00000000e+00  1.03820622e+00  1.89213133e+00
 2.05649185e+00  0.00000000e+00  1.87778068e+00
 2.05014682e+00  1.03276610e+00  1.87994182e+00
 3.08835363e+00  0.00000000e+00  1.86658216e+00
 3.08858252e+00  1.03190887e+00  1.86702931e+00
 4.13103342e+00  0.00000000e+00  1.85084558e+00
 4.12748098e+00  1.03277075e+00  1.86184418e+00
 5.17436075e+00  0.00000000e+00  1.83910775e+00
 5.17023230e+00  1.03448677e+00  1.85183918e+00
 6.20884132e+00  0.00000000e+00  1.83206534e+00
 6.21711111e+00  1.03767085e+00  1.84235454e+00
 1.01975775e+00  2.07379913e+00  1.90338540e+00
 0.00000000e+00  2.07784796e+00  1.90827346e+00
 2.04672408e+00  2.07274079e+00  1.89897525e+00
 3.07889152e+00  2.07673573e+00  1.89598453e+00
 4.12112045e+00  2.08649015e+00  1.88077557e+00
 5.16656876e+00  2.08814454e+00  1.88351250e+00
 6.20836782e+00  2.09301496e+00  1.87215889e+00
 1.01673806e+00  3.10638189e+00  1.92285204e+00
 0.00000000e+00  3.10772491e+00  1.92715037e+00
 2.03898835e+00  3.10715151e+00  1.93481803e+00
 3.03544497e+00  3.09838653e+00  2.00527501e+00
 1.01886296e+00  4.13091230e+00  1.93915200e+00
 0.00000000e+00  4.12813807e+00  1.93308127e+00
 2.04021025e+00  4.12160587e+00  1.95805693e+00
 3.05152178e+00  4.10415459e+00  1.98281801e+00
 1.02209032e+00  5.14058161e+00  1.93481970e+00
 0.00000000e+00  5.14430618e+00  1.93017042e+00
 2.03794909e+00  5.13476515e+00  1.94960892e+00
 3.06676722e+00  5.12499142e+00  1.95962369e+00
 1.01817966e+00  6.16386175e+00  1.91648638e+00
 0.00000000e+00  6.16168451e+00  1.91534543e+00
 2.03809810e+00  6.16864347e+00  1.92478979e+00
 3.07237244e+00  6.16354179e+00  1.92561996e+00
 5.06755495e+00  5.12491846e+00  2.00002265e+00
 6.06755590e+00  5.12799072e+00  2.00001049e+00
 6.06447649e+00  6.12799883e+00  1.99998951e+00
 5.06445312e+00  6.12492704e+00  1.99998116e+00
 0.00000000e+00  0.00000000e+00  2.83558011e+00
 1.03100705e+00  0.00000000e+00  2.83381629e+00
 1.03206229e+00  1.03345418e+00  2.83927631e+00
 0.00000000e+00  1.03248763e+00  2.84342051e+00
 2.06840301e+00  0.00000000e+00  2.82304001e+00
 2.06051254e+00  1.02728629e+00  2.83080006e+00
 3.10180593e+00  0.00000000e+00  2.81135774e+00
 3.10243750e+00  1.02303457e+00  2.81410122e+00
 4.14212227e+00  0.00000000e+00  2.80048084e+00
 4.14390564e+00  1.02441680e+00  2.79649568e+00
 5.18288231e+00  0.00000000e+00  2.78644252e+00
 5.18419695e+00  1.02659786e+00  2.78890753e+00
 6.21947718e+00  0.00000000e+00  2.78066826e+00
 6.22072697e+00  1.02554119e+00  2.78359365e+00
 1.02153277e+00  2.06245852e+00  2.85594821e+00
 0.00000000e+00  2.07186151e+00  2.85843849e+00
 2.05800295e+00  2.06226563e+00  2.83696294e+00
 3.09510517e+00  2.06760216e+00  2.80494118e+00
 4.14272499e+00  2.07552028e+00  2.79811263e+00
 5.18475246e+00  2.06912112e+00  2.79772067e+00
 6.22063828e+00  2.06903648e+00  2.79389834e+00
 1.01697040e+00  3.10809970e+00  2.88789797e+00
 0.00000000e+00  3.10576272e+00  2.88358426e+00
 2.05170774e+00  3.09486961e+00  2.86267996e+00
 1.01641893e+00  4.13225317e+00  2.90714788e+00
 0.00000000e+00  4.13739634e+00  2.90464520e+00
 2.04241109e+00  4.13265944e+00  2.93094206e+00
 1.01793444e+00  5.16166639e+00  2.90134811e+00
 0.00000000e+00  5.15717697e+00  2.89960408e+00
 2.04156327e+00  5.16119719e+00  2.90454364e+00
 3.05063939e+00  4.15520859e+00  3.01145864e+00
 3.06892037e+00  5.15439653e+00  2.89196157e+00
 1.01936948e+00  6.18418455e+00  2.88165140e+00
 0.00000000e+00  6.18559074e+00  2.87307835e+00
</DataArray>
</Points>
<PointData Tensors="Stress_Components,Plastic_strain_components" Vevtors="Spatial_displacement,Reaction_force" Scalars="Equivalent_plastic_strain,Stress_Mises,Stress_Max_Principal,Stress_Mid_Principal,Stress_Min_Principal,Stress_Pressure,Stress_Tresca,Stress_Third_Invariant,Plastic_strain_Max_Principal,Plastic_strain_Min_Principal">
<DataArray type="Float32" Name="Stress_Components" NumberOfComponents="9" format="ascii">
-3.54545021e+00 -4.86318953e-03 -9.34637245e-03 -4.86318953e-03 1.24328232e+00 2.32689641e-03 -9.34637245e-03 2.32689641e-03 -3.21118431e+01
-6.67894775e+00 2.54024379e-01 -2.23449687e-03 2.54024379e-01 -1.37877584e+00 -1.83545977e-01 -2.23449687e-03 -1.83545977e-01 -3.82969656e+01
-3.90723741e+00 5.44670962e-01 -4.51223478e-01 5.44670962e-01 -3.74407917e-01 -3.33706178e-01 -4.51223478e-01 -3.33706178e-01 -3.43845229e+01
-2.77256429e+00 1.79415338e-01 -3.42855215e-01 1.79415338e-01 4.72451925e-01 1.28646428e-02 -3.42855215e-01 1.28646428e-02 -3.23016434e+01
-1.93497392e+00 -3.00476351e-03 9.40703377e-02 -3.00476351e-03 2.52264273e+00 -3.27576965e-01 9.40703377e-02 -3.27576965e-01 -2.90164938e+01
-4.71378613e+00 1.07096424e-01 4.37848851e-01 1.07096424e-01 3.06744277e-02 -5.36334582e-01 4.37848851e-01 -5.36334582e-01 -3.46925812e+01
-2.65641398e+00 3.39878163e-01 -6.82645821e-02 3.39878163e-01 7.79574871e-01 -4.77803577e-01 -6.82645821e-02 -4.77803577e-01 -3.18000665e+01
-3.31717670e+00 1.11032544e-01 -8.36219713e-02 1.11032544e-01 1.27861798e-01 -4.98760049e-03 -8.36219713e-02 -4.98760049e-03 -3.32317276e+01
-9.94568813e+00 7.62509098e-02 -1.45763820e-02 7.62509098e-02 -4.00709653e+00 -4.38550383e-01 -1.45763820e-02 -4.38550383e-01 -4.46213217e+01
-1.07757235e+01 1.11703826e+00 -7.12539285e-01 1.11703826e+00 -5.78613842e+00 -3.03296439e-01 -7.12539285e-01 -3.03296439e-01 -4.75084108e+01
-5.30640617e+00 1.90238833e-01 4.09237776e-01 1.90238833e-01 -1.29631865e+00 -2.64667895e-01 4.09237776e-01 -2.64667895e-01 -3.69244082e+01
-6.85212407e+00 3.31827218e-01 -5.21644375e-01 3.31827218e-01 -2.78073950e+00 -1.21996498e+00 -5.21644375e-01 -1.21996498e+00 -4.00868403e+01
-1.44516654e+01 6.10000312e-01 -6.27374053e-02 6.10000312e-01 -8.05584162e+00 4.39843714e-01 -6.27374053e-02 4.39843714e-01 -5.38812809e+01
-1.68942924e+01 7.12899238e-01 -1.44228715e+00 7.12899238e-01 -1.05097225e+01 -9.99746740e-01 -1.44228715e+00 -9.99746740e-01 -5.91601832e+01
-6.17107117e+00 -4.81320031e-01 -3.16841774e-01 -4.81320031e-01 -3.47318548e+00 -2.99002126e-01 -3.16841774e-01 -2.99002126e-01 -4.03718879e+01
-1.08089117e+01 -4.53833388e-01 6.33333959e-02 -4.53833388e-01 -6.05616952e+00 -8.74981431e-01 6.33333959e-02 -8.74981431e-01 -4.78022919e+01
-1.72344339e+01 -1.31943065e+00 -7.40328766e-02 -1.31943065e+00 -1.15872516e+01 2.26305235e-01 -7.40328766e-02 2.26305235e-01 -6.08159389e+01
-2.40202212e+01 -1.22417966e+00 -2.49632904e+00 -1.22417966e+00 -1.34288695e+01 -2.16981806e-02 -2.49632904e+00 -2.16981806e-02 -6.93103395e+01
-8.39005017e+00 -1.38887025e+00 4.00944874e-02 -1.38887025e+00 -6.32864630e+00 -1.94638064e-01 4.00944874e-02 -1.94638064e-01 -4.58457876e+01
-3.03225696e+00 -1.14394266e+00 -1.55683694e-01 -1.14394266e+00 -9.81209427e-01 2.59199016e-01 -1.55683694e-01 2.59199016e-01 -3.42342461e+01
-1.92662456e+01 -8.67597163e-01 -1.76962167e-01 -8.67597163e-01 -1.16736829e+01 9.81637716e-01 -1.76962167e-01 9.81637716e-01 -6.28691921e+01
-1.37189252e+01 -3.18607976e+00 -2.49638400e+00 -3.18607976e+00 -6.66324249e+00 8.44126493e-01 -2.49638400e+00 8.44126493e-01 -5.05730524e+01
-4.41842437e+00 -7.10054236e-01 6.49038544e-02 -7.10054236e-01 -2.29881477e+00 1.04388950e+00 6.49038544e-02 1.04388950e+00 -3.71806908e+01
-5.36144562e-01 -2.09913885e+00 3.42134900e-01 -2.09913885e+00 5.14442883e-01 4.06313114e-01 3.42134900e-01 4.06313114e-01 -2.97224926e+01
-4.52865677e+01 -4.72330618e+00 -1.78677782e-01 -4.72330618e+00 -2.98630447e+01 4.68980789e-01 -1.78677782e-01 4.68980789e-01 -1.09244682e+02
-4.98807068e+01 -4.53433943e+00 -3.55931008e+00 -4.53433943e+00 -2.82339220e+01 4.68979812e+00 -3.55931008e+00 4.68979812e+00 -1.09960476e+02
-2.38386514e+01 -7.03144342e-01 -1.22051001e+00 -7.03144342e-01 -1.47319076e+01 1.90852599e+00 -1.22051001e+00 1.90852599e+00 -7.08620777e+01
-2.23283384e+01 -2.08846387e+00 -1.27095982e-01 -2.08846387e+00 -1.53985496e+01 2.46071681e+00 -1.27095982e-01 2.46071681e+00 -6.92847071e+01
-3.74155045e-01 9.29584630e-01 -5.03489502e-01 9.29584630e-01 -2.07779408e+00 -4.25208379e-01 -5.03489502e-01 -4.25208379e-01 -3.24867434e+01
1.23376083e+00 1.37595523e-01 -7.08375692e-01 1.37595523e-01 -1.54738903e-01 4.34402935e-03 -7.08375692e-01 4.34402935e-03 -2.87125511e+01
-9.72155701e-01 6.67346664e-01 2.98106670e-01 6.67346664e-01 -4.88867402e-01 -8.74350073e-01 2.98106670e-01 -8.74350073e-01 -3.14982509e+01
2.73353779e+00 3.23074117e-01 9.25914604e-01 3.23074117e-01 2.99786568e+00 -9.64903748e-02 9.25914604e-01 -9.64903748e-02 -2.37687549e+01
-2.13375139e+00 2.22200644e+00 -1.10106017e+00 2.22200644e+00 -4.56095934e+00 -1.26941168e+00 -1.10106017e+00 -1.26941168e+00 -3.66258028e+01
-2.03503448e+00 1.37553457e+00 1.60262770e+00 1.37553457e+00 -1.80328406e+00 -4.93292939e-01 1.60262770e+00 -4.93292939e-01 -3.35994156e+01
1.35336413e+01 1.18599517e+00 -1.28299502e+00 1.18599517e+00 1.21003147e+01 -7.22017992e-01 -1.28299502e+00 -7.22017992e-01 -3.05880976e+00
3.71421501e+00 7.40737106e-01 4.04527008e+00 7.40737106e-01 4.90198456e+00 1.34102787e-03 4.04527008e+00 1.34102787e-03 -2.03186512e+01
1.90561510e+01 -1.97481055e+00 -4.23447356e+00 -1.97481055e+00 1.37378922e+01 -8.57493435e-02 -4.23447356e+00 -8.57493435e-02 5.15852547e+00
-7.45592948e+00 -5.61280119e+00 7.36280283e+00 -5.61280119e+00 -4.57267690e+00 9.65711160e-01 7.36280283e+00 9.65711160e-01 -3.84807533e+01
2.25726997e+01 -4.23091657e-01 -4.11651923e+00 -4.23091657e-01 1.66880331e+01 1.11663749e+00 -4.11651923e+00 1.11663749e+00 1.19749520e+01
-2.52852273e+00 -4.41631095e+00 8.82190377e+00 -4.41631095e+00 -5.31636461e+00 3.27112511e+00 8.82190377e+00 3.27112511e+00 -3.13871835e+01
1.07521591e+01 -4.99796009e+00 -5.33262473e+00 -4.99796009e+00 1.86140823e+00 3.15158945e+00 -5.33262473e+00 3.15158945e+00 -1.39569283e+01
-2.35172234e+01 -8.83246112e+00 8.49270062e+00 -8.83246112e+00 -1.90888329e+01 6.52460929e+00 8.49270062e+00 6.52460929e+00 -6.92395096e+01
2.88152843e+00 5.99630028e-01 3.04979987e-01 5.99630028e-01 -4.89183283e+00 -7.03333318e-01 3.04979987e-01 -7.03333318e-01 -3.11134849e+01
4.70000982e+00 3.10469627e-01 3.88851970e-01 3.10469627e-01 -5.25811672e-01 -1.10817607e-02 3.88851970e-01 -1.10817607e-02 -2.49945629e+01
3.31288949e+00 2.87902769e-01 1.26801351e+00 2.87902769e-01 -2.44441536e+00 -5.74342731e-01 1.26801351e+00 -5.74342731e-01 -2.83318078e+01
6.60816252e+00 1.45947578e-01 1.03638737e+00 1.45947578e-01 3.87107223e+00 -3.39256587e-01 1.03638737e+00 -3.39256587e-01 -1.83991364e+01
1.65346189e+01 1.72708590e-01 1.20144822e-01 1.72708590e-01 1.16035275e+01 -1.41478810e+00 1.20144822e-01 -1.41478810e+00 7.89412498e-01
1.22142952e+01 3.73805123e-01 1.28436848e+00 3.73805123e-01 3.75237828e+00 1.12017950e+00 1.28436848e+00 1.12017950e+00 -1.18663175e+01
2.76291203e+01 1.50658563e-01 1.17255330e-01 1.50658563e-01 2.28719673e+01 -8.93379755e-01 1.17255330e-01 -8.93379755e-01 2.32898593e+01
3.13228452e+01 -9.82714551e-01 -2.22290874e-01 -9.82714551e-01 2.88882753e+01 2.37106942e+00 -2.22290874e-01 2.37106942e+00 3.42731754e+01
2.83086189e+01 -1.78062344e+00 -1.05498266e+00 -1.78062344e+00 2.45391968e+01 -3.31660424e+00 -1.05498266e+00 -3.31660424e+00 3.49701201e+01
2.37030754e+01 -5.93898137e-01 -7.02432926e+00 -5.93898137e-01 2.71022186e+01 4.42186778e+00 -7.02432926e+00 4.42186778e+00 3.73156238e+01
3.35776030e+01 7.15899636e-01 2.19524848e+00 7.15899636e-01 3.75602023e+01 -5.08246846e-01 2.19524848e+00 -5.08246846e-01 4.02274437e+01
2.93543247e+01 4.03036336e+00 -8.18657827e+00 4.03036336e+00 3.47883167e+01 -1.50174290e+00 -8.18657827e+00 -1.50174290e+00 4.45497588e+01
2.33363847e+01 5.60173869e+00 -2.37794915e+00 5.60173869e+00 8.47265053e+00 6.93897605e-01 -2.37794915e+00 6.93897605e-01 3.57490242e+01
1.70260668e+01 3.46706032e+00 1.38434911e+00 3.46706032e+00 7.96652412e+00 -2.31273758e+00 1.38434911e+00 -2.31273758e+00 2.19099917e+01
4.18595159e+00 -7.28894010e-01 1.98527411e-01 -7.28894010e-01 -5.87673678e+00 -1.10761499e+00 1.98527411e-01 -1.10761499e+00 -3.00742803e+01
2.86799622e+00 -6.69548512e-01 5.13231695e-01 -6.69548512e-01 -5.32722068e+00 -2.98405569e-02 5.13231695e-01 -2.98405569e-02 -3.15116310e+01
6.45773157e+00 -1.06098941e+00 1.73907815e+00 -1.06098941e+00 -3.92110854e-01 -1.30541410e-01 1.73907815e+00 -1.30541410e-01 -2.21458547e+01
4.47197211e+00 -8.49265873e-01 5.30001663e-01 -8.49265873e-01 -1.54502105e+00 8.57399832e-02 5.30001663e-01 8.57399832e-02 -2.61670585e+01
1.07728606e+01 -1.72973553e+00 -7.28659190e-01 -1.72973553e+00 2.44664431e+00 -2.06238359e+00 -7.28659190e-01 -2.06238359e+00 -1.39885240e+01
1.39469875e+01 -1.36470220e+00 -1.45373659e-01 -1.36470220e+00 7.72454631e+00 2.48969903e+00 -1.45373659e-01 2.48969903e+00 -4.34863198e+00
1.81852573e+01 -1.24656136e+00 -4.92316799e-01 -1.24656136e+00 2.19295075e+01 -4.88028890e+00 -4.92316799e-01 -4.88028890e+00 1.63225142e+01
2.39403354e+01 -2.30883956e-01 -1.30766883e-01 -2.30883956e-01 2.22750688e+01 -7.44049110e-01 -1.30766883e-01 -7.44049110e-01 1.92300369e+01
1.21543326e+01 7.32129733e-01 -3.69792283e-01 7.32129733e-01 1.97635209e+01 -3.36321730e+00 -3.69792283e-01 -3.36321730e+00 1.54414989e+01
1.42030713e+01 2.80781853e+00 -4.50540756e-01 2.80781853e+00 4.85321291e+00 4.13703092e+00 -4.50540756e-01 4.13703092e+00 -6.21788979e-01
-3.04621649e+00 -5.13427758e+00 6.45649225e-01 -5.13427758e+00 -2.32942572e+01 1.22841583e+00 6.45649225e-01 1.22841583e+00 -7.61515808e+00
6.40593545e+00 -1.19381078e+00 -4.03419659e-01 -1.19381078e+00 1.24934055e+01 1.17989016e+00 -4.03419659e-01 1.17989016e+00 7.46275727e+00
2.98957318e+00 -4.71580553e+00 1.46142018e+00 -4.71580553e+00 -1.66582551e+01 -1.35875220e+00 1.46142018e+00 -1.35875220e+00 -2.09092835e+00
4.43210860e+00 -2.23818906e+00 -2.13456337e+00 -2.23818906e+00 7.54216949e+00 -4.97994751e-01 -2.13456337e+00 -4.97994751e-01 -1.63830278e+00
2.99633169e+00 -1.87216730e+00 1.22062644e+00 -1.87216730e+00 -5.27869207e+00 -4.03893787e-01 1.22062644e+00 -4.03893787e-01 -3.09500105e+01
1.62678862e+00 -1.47403073e+00 2.42737532e-01 -1.47403073e+00 -6.06668162e+00 -7.94120133e-03 2.42737532e-01 -7.94120133e-03 -3.37535715e+01
7.34529324e+00 -1.44866657e+00 4.15457673e-01 -1.44866657e+00 2.92106846e+00 5.64186594e-01 4.15457673e-01 5.64186594e-01 -1.82033706e+01
4.10058799e+00 -4.53013726e-01 -9.09920931e-02 -4.53013726e-01 -2.09858030e+00 7.08991364e-01 -9.09920931e-02 7.08991364e-01 -2.70071757e+01
8.46033041e+00 -2.21198111e+00 4.17077404e-01 -2.21198111e+00 2.29528233e+00 -2.81012678e+00 4.17077404e-01 -2.81012678e+00 -1.68258269e+01
1.08049296e+01 -2.26158665e+00 -5.70791635e-01 -2.26158665e+00 7.52479533e+00 1.74050741e+00 -5.70791635e-01 1.74050741e+00 -8.64254427e+00
1.68961264e+01 1.22988173e+00 1.98214611e+00 1.22988173e+00 1.96304409e+01 -2.86423515e+00 1.98214611e+00 -2.86423515e+00 1.08986630e+01
8.12094808e+00 -1.57811363e+00 -1.38602508e+00 -1.57811363e+00 6.19922690e+00 3.65606953e+00 -1.38602508e+00 3.65606953e+00 -1.22472224e+01
1.01817544e+01 4.97255532e+00 3.68660222e-01 4.97255532e+00 1.19129709e+01 -1.18779304e+00 3.68660222e-01 -1.18779304e+00 9.86792517e+00
8.07113278e+00 2.40506873e+00 2.15046380e+00 2.40506873e+00 2.61606985e+00 1.19850683e+00 2.15046380e+00 1.19850683e+00 2.77170563e+00
3.90380561e-01 6.91349387e-01 -2.97073454e-01 6.91349387e-01 2.34515929e+00 1.84711900e+00 -2.97073454e-01 1.84711900e+00 2.75928137e+00
2.83673704e+00 7.30718374e-01 -7.64767566e-01 7.30718374e-01 8.54710495e-01 -6.20872852e-01 -7.64767566e-01 -6.20872852e-01 1.14790732e-01
2.81331700e+00 5.67833491e-01 -1.24514741e+00 5.67833491e-01 -7.55746222e+00 4.04147506e-01 -1.24514741e+00 4.04147506e-01 -1.78277600e+00
1.01663354e+00 -7.45541990e-01 5.46195065e-01 -7.45541990e-01 -5.77835834e+00 -1.70245474e-01 5.46195065e-01 -1.70245474e-01 2.70222127e-02
-1.09266963e+01 -2.20231757e+00 3.16254959e-01 -2.20231757e+00 -1.92491279e+01 -9.92742598e-01 3.16254959e-01 -9.92742598e-01 -6.15816383e+01
-9.11329651e+00 -6.14892364e-01 1.35731149e+00 -6.14892364e-01 -2.03691502e+01 -2.25284416e-02 1.35731149e+00 -2.25284416e-02 -6.04954262e+01
-4.49925375e+00 -9.78997737e-01 9.22559798e-02 -9.78997737e-01 -1.07110382e+01 -1.05860596e+00 9.22559798e-02 -1.05860596e+00 -4.57978859e+01
-9.52853346e+00 -1.58620125e+00 -2.27582633e-01 -1.58620125e+00 -1.66018667e+01 8.06365699e-01 -2.27582633e-01 8.06365699e-01 -5.76690540e+01
-1.63203654e+01 -4.25463521e+00 5.19677496e+00 -4.25463521e+00 -2.18751135e+01 -5.29853916e+00 5.19677496e+00 -5.29853916e+00 -6.85704308e+01
-1.06537750e+01 -3.40430352e+00 6.07476220e-01 -3.40430352e+00 -9.06360888e+00 6.66095674e-01 6.07476220e-01 6.66095674e-01 -5.07522286e+01
7.21032524e+00 5.82287863e-01 5.09537347e+00 5.82287863e-01 1.44263635e+01 -2.62250936e+00 5.09537347e+00 -2.62250936e+00 -5.72973061e+00
-2.50854859e+01 -6.87994266e+00 2.27477309e+00 -6.87994266e+00 -1.95937070e+01 1.07967200e+01 2.27477309e+00 1.07967200e+01 -7.37698498e+01
1.19091272e+00 -3.40900195e+00 5.79488978e-01 -3.40900195e+00 1.64067197e+01 -1.41245848e+00 5.79488978e-01 -1.41245848e+00 1.05549200e+01
-1.20359232e+01 -8.00389832e+00 9.04530890e-01 -8.00389832e+00 -8.25654769e+00 5.97578621e+00 9.04530890e-01 5.97578621e+00 -7.62527275e+00
-7.04839429e+00 -3.71910572e-01 1.28399640e+00 -3.71910572e-01 2.78886199e+00 2.02620173e+00 1.28399640e+00 2.02620173e+00 6.07574287e+00
-4.05633124e+00 -1.32881006e-01 8.08313668e-01 -1.32881006e-01 2.66442531e+00 -3.02217778e+00 8.08313668e-01 -3.02217778e+00 3.31687923e+00
-1.84092116e+00 2.43418980e+00 -7.43367255e-01 2.43418980e+00 -2.47708797e+00 5.61615467e-01 -7.43367255e-01 5.61615467e-01 -5.97529054e-01
-3.70284164e+00 3.63673389e-01 -1.22376382e-02 3.63673389e-01 -2.55060196e-03 1.21991521e+00 -1.22376382e-02 1.21991521e+00 6.72144979e-01
-2.33760643e+00 -7.42372824e-04 -1.76285077e-02 -7.42372824e-04 1.09959483e+00 -5.91308385e-01 -1.76285077e-02 -5.91308385e-01 -3.11529026e+01
-1.21402968e+00 1.32074654e-02 6.06026143e-01 1.32074654e-02 1.11531645e+00 -4.74140200e-01 6.06026143e-01 -4.74140200e-01 -2.99925170e+01
1.09035742e+00 -4.45403886e-01 2.21300126e-01 -4.45403886e-01 3.79539381e+00 5.78888822e-02 2.21300126e-01 5.78888822e-02 -2.45455947e+01
-2.84057391e+00 -4.97574965e-02 1.16123676e-01 -4.97574965e-02 1.11335081e+00 7.02982536e-03 1.16123676e-01 7.02982536e-03 -3.15819008e+01
3.72489154e+00 -8.27056251e-01 6.01093158e-01 -8.27056251e-01 3.95085445e+00 2.23655357e-01 6.01093158e-01 2.23655357e-01 -2.16861627e+01
3.38916476e+00 -6.38115452e-01 -2.53173278e-01 -6.38115452e-01 4.65232790e+00 -9.74519197e-01 -2.53173278e-01 -9.74519197e-01 -2.10759337e+01
4.21057799e+00 -3.79572622e-03 3.99556644e-02 -3.79572622e-03 3.44023585e+00 -9.44002792e-02 3.99556644e-02 -9.44002792e-02 -2.17153752e+01
6.03790887e+00 -4.36841982e-01 -5.10539718e-01 -4.36841982e-01 5.47749467e+00 -4.14188083e-01 -5.10539718e-01 -4.14188083e-01 -1.74878805e+01
4.09854865e+00 -3.05025686e-01 3.90251208e-01 -3.05025686e-01 1.86646336e+00 -3.70232850e-01 3.90251208e-01 -3.70232850e-01 -2.34995548e+01
2.71761996e+00 -5.52500173e-01 -1.36635192e-01 -5.52500173e-01 2.50962973e+00 7.98732097e-01 -1.36635192e-01 7.98732097e-01 -2.42491633e+01
7.94287002e+00 -5.59716083e-01 4.95914772e-01 -5.59716083e-01 6.60589910e+00 3.87466229e-01 4.95914772e-01 3.87466229e-01 -1.42083929e+01
3.58785354e+00 -3.51462232e-01 3.54116244e-01 -3.51462232e-01 2.55208840e+00 5.93525141e-01 3.54116244e-01 5.93525141e-01 -2.33451101e+01
8.61485338e+00 5.78518808e-01 2.22678982e-01 5.78518808e-01 9.26067924e+00 1.32143188e+00 2.22678982e-01 1.32143188e+00 -1.06282287e+01
6.15040255e+00 3.08113277e-01 -5.83788255e-01 3.08113277e-01 5.23068714e+00 4.50682111e-01 -5.83788255e-01 4.50682111e-01 -1.76527595e+01
3.87915152e+00 -6.96137597e-01 5.69931063e-01 -6.96137597e-01 6.11979479e+00 -1.02250216e+00 5.69931063e-01 -1.02250216e+00 -1.89616761e+01
-1.39741957e+00 -6.98569313e-01 1.82442224e+00 -6.98569313e-01 2.17773995e+00 -2.42586531e-01 1.82442224e+00 -2.42586531e-01 -2.86567422e+01
-1.12437929e+01 -6.81230786e-01 1.42107553e+00 -6.81230786e-01 -7.40172878e+00 -4.23164351e-01 1.42107553e+00 -4.23164351e-01 -5.13375964e+01
-4.72858296e+01 -5.60506572e+00 1.33316813e+01 -5.60506572e+00 -4.67538860e+01 6.10899448e-01 1.33316813e+01 6.10899448e-01 -1.20012333e+02
-3.33023753e+01 -5.11301998e-01 1.47919092e+00 -5.11301998e-01 -2.91124372e+01 2.62457740e+00 1.47919092e+00 2.62457740e+00 -9.71704426e+01
-3.37949014e+01 -7.69621350e-01 3.35418230e+00 -7.69621350e-01 -2.80422417e+01 5.22947210e+00 3.35418230e+00 5.22947210e+00 -9.52793531e+01
-3.75381975e+01 -3.14634836e+00 2.10294592e+00 -3.14634836e+00 -2.86746731e+01 6.15493721e+00 2.10294592e+00 6.15493721e+00 -9.91626358e+01
1.07998668e+01 3.48185915e-02 1.47932119e+00 3.48185915e-02 1.28065649e+01 -1.01733018e+00 1.47932119e+00 -1.01733018e+00 -4.30778700e+00
8.03888643e+00 -2.72856632e-01 1.44165125e+00 -2.72856632e-01 9.10613322e+00 -1.04566437e-01 1.44165125e+00 -1.04566437e-01 -1.12525064e+01
-2.65847737e+01 -1.56677784e+00 6.33407140e+00 -1.56677784e+00 -2.17153615e+01 1.06613130e+01 6.33407140e+00 1.06613130e+01 -7.26749950e+01
1.25089040e+01 -1.65553057e+00 -4.07849026e+00 -1.65553057e+00 1.61678014e+01 3.67140394e+00 -4.07849026e+00 3.67140394e+00 3.09497728e+01
1.17043771e+01 -3.45572010e-02 1.87855747e+00 -3.45572010e-02 9.93193096e+00 7.46869527e-01 1.87855747e+00 7.46869527e-01 -5.51917475e+00
1.15714158e+01 7.36231074e-01 7.49105778e-01 7.36231074e-01 1.13431680e+01 7.19565690e-01 7.49105778e-01 7.19565690e-01 -5.18636501e+00
2.39508016e+01 -2.25540756e+00 9.14057957e-01 -2.25540756e+00 2.21467889e+01 -1.79128945e-02 9.14057957e-01 -1.79128945e-02 1.94159274e+01
2.28093415e+01 -1.22115763e+00 -5.76817067e+00 -1.22115763e+00 2.37558300e+01 -8.14773162e-01 -5.76817067e+00 -8.14773162e-01 1.75711212e+01
1.17968196e+01 -3.63189459e-01 3.44839491e-01 -3.63189459e-01 9.31715117e+00 2.80731321e-01 3.44839491e-01 2.80731321e-01 -6.76210392e+00
1.02510478e+01 -7.85672873e-01 3.75844926e-01 -7.85672873e-01 7.96887270e+00 5.74410595e-01 3.75844926e-01 5.74410595e-01 -1.00471684e+01
1.61237359e-01 -2.57293062e+00 6.42722298e-01 -2.57293062e+00 -4.46459055e-02 2.34391325e+00 6.42722298e-01 2.34391325e+00 -2.79121098e+01
-1.34121039e+01 -7.01990768e-01 -1.20145370e+00 -7.01990768e-01 -1.26160703e+01 5.31797725e+00 -1.20145370e+00 5.31797725e+00 -5.89294114e+01
3.14481974e-01 -5.22714529e-01 -4.23053537e-01 -5.22714529e-01 1.08006793e+00 -2.08792642e-01 -4.23053537e-01 -2.08792642e-01 -2.86246014e+01
-1.46979880e+00 -1.76919263e-01 -3.04382384e-01 -1.76919263e-01 -3.00052130e+00 1.17910457e+00 -3.04382384e-01 1.17910457e+00 -3.46816654e+01
-3.66837740e+00 2.52520919e-01 1.13670392e+00 2.52520919e-01 1.84556246e+00 -1.49588794e+00 1.13670392e+00 -1.49588794e+00 -3.15605812e+01
-6.95292130e+01 -1.91157311e+00 -3.17213559e+00 -1.91157311e+00 -6.47472496e+01 4.75235212e+00 -3.17213559e+00 4.75235212e+00 -1.75770615e+02
-1.22327089e-01 -6.16719395e-01 -1.93151932e-01 -6.16719395e-01 2.10348010e-01 1.52187854e-01 -1.93151932e-01 1.52187854e-01 -5.16227603e-01
-3.62985287e-01 -1.51051514e-01 -1.42451137e-01 -1.51051514e-01 -5.84762990e-02 -1.73436962e-01 -1.42451137e-01 -1.73436962e-01 -6.76823407e-03
6.01712063e-01 -1.65085651e-01 -1.68943740e-02 -1.65085651e-01 -2.51436830e-02 5.15740398e-01 -1.68943740e-02 5.15740398e-01 -1.00476295e+00
3.49173591e-01 -6.30870223e-01 -2.61111856e-02 -6.30870223e-01 -2.49549000e-01 -4.81129736e-01 -2.61111856e-02 -4.81129736e-01 -5.27944386e-01
-2.12645531e-02 2.20424198e-02 5.04796281e-01 2.20424198e-02 6.46289825e-01 -1.36514693e-01 5.04796281e-01 -1.36514693e-01 -2.93514719e+01
4.57698770e-01 3.69879782e-01 3.15548617e-01 3.69879782e-01 3.87978196e-01 3.57314661e-01 3.15548617e-01 3.57314661e-01 -2.90551341e+01
3.65663146e+00 -5.59536865e-01 5.49796842e-01 -5.59536865e-01 4.29823033e+00 5.08064921e-01 5.49796842e-01 5.08064921e-01 -2.13036540e+01
1.68615311e-01 2.00804573e-01 6.23091258e-01 2.00804573e-01 1.70941183e+00 -3.58723231e-01 6.23091258e-01 -3.58723231e-01 -2.79292746e+01
4.78300995e+00 -9.78640288e-01 3.15608731e-01 -9.78640288e-01 3.42597842e+00 1.26596497e-01 3.15608731e-01 1.26596497e-01 -2.10649747e+01
5.47974801e+00 -8.38807348e-01 1.04872748e+00 -8.38807348e-01 5.02593219e+00 9.12818317e-01 1.04872748e+00 9.12818317e-01 -1.83046543e+01
6.73704134e+00 1.36506002e-01 4.81827231e-02 1.36506002e-01 4.75110197e+00 6.46330281e-01 4.81827231e-02 6.46330281e-01 -1.74319229e+01
1.00073285e+01 -2.07771647e-01 1.77939702e-02 -2.07771647e-01 7.86674616e+00 -1.77203324e-02 1.77939702e-02 -1.77203324e-02 -1.05658566e+01
9.04951864e+00 2.44905233e-01 -1.49433717e-01 2.44905233e-01 6.36509055e+00 2.72068504e-01 -1.49433717e-01 2.72068504e-01 -1.31356218e+01
2.93935865e+00 2.09072881e-01 -7.09367152e-01 2.09072881e-01 4.78363574e-01 8.93444456e-02 -7.09367152e-01 8.93444456e-02 -2.61267828e+01
1.23042402e+01 -9.49899135e-02 1.06601937e-01 -9.49899135e-02 1.00382936e+01 -1.82354320e-01 1.06601937e-01 -1.82354320e-01 -5.69446200e+00