<VTKFile type="UnstructuredGrid" version="0.1" byte_order="LittleEndian">
<UnstructuredGrid>
<Piece NumberOfPoints="191" NumberOfCells="79">
<Points>
<DataArray type="Float64" NumberOfComponents="3" format="ascii">
 1.01282787e+00  5.09256935e+00  1.95924020e+00
 2.02285409e+00  5.08902931e+00  1.97014880e+00
 2.02246022e+00  6.11038399e+00  1.95422053e+00
 1.00983357e+00  6.10687828e+00  1.94743586e+00
 1.01035714e+00  5.10560703e+00  2.93882418e+00
 2.02514076e+00  5.10626554e+00  2.94002771e+00
 2.01999331e+00  6.13462734e+00  2.91982007e+00
 1.01084304e+00  6.11897707e+00  2.92779613e+00
 3.04082131e+00  5.08293104e+00  1.97586977e+00
 3.04439688e+00  6.10778713e+00  1.95468450e+00
 3.04461265e+00  5.10054111e+00  2.93285418e+00
 3.06590724e+00  6.13350010e+00  2.88594866e+00
 5.04040527e+00  5.08657026e+00  2.00001335e+00
 6.04041004e+00  5.08969402e+00  1.99998105e+00
 6.03727150e+00  6.08970594e+00  2.00000358e+00
 5.03725338e+00  6.08657598e+00  2.00001359e+00
 5.04042912e+00  5.08656168e+00  3.00000000e+00
 6.04041529e+00  5.08970165e+00  2.99999094e+00
 6.03728056e+00  6.08968592e+00  2.99999237e+00
 5.03729820e+00  6.08654785e+00  3.00002408e+00
 0.00000000e+00  0.00000000e+00  2.88814640e+00
 1.02107096e+00  0.00000000e+00  2.88666034e+00
 1.02143538e+00  1.02247298e+00  2.89138651e+00
 0.00000000e+00  1.02199709e+00  2.89469624e+00
 0.00000000e+00  0.00000000e+00  3.84991288e+00
 1.02935719e+00  0.00000000e+00  3.84949040e+00
 1.02983570e+00  1.02135968e+00  3.85125089e+00
 0.00000000e+00  1.02037799e+00  3.85531402e+00
 2.04636908e+00  0.00000000e+00  2.87810707e+00
 2.04076481e+00  1.01770687e+00  2.88486910e+00
 2.05670142e+00  0.00000000e+00  3.84447908e+00
 2.05811810e+00  1.02225494e+00  3.84358501e+00
 3.06903696e+00  0.00000000e+00  2.86915278e+00
 3.06939745e+00  1.01414788e+00  2.87162733e+00
 3.08390689e+00  0.00000000e+00  3.83510590e+00
 3.08182168e+00  1.01965785e+00  3.83467889e+00
 4.09642029e+00  0.00000000e+00  2.86072230e+00
 4.09740925e+00  1.01511562e+00  2.85743260e+00
 4.10675383e+00  0.00000000e+00  3.82743478e+00
 4.10618019e+00  1.01576352e+00  3.82293916e+00
 5.12289715e+00  0.00000000e+00  2.84930134e+00
 5.12426805e+00  1.01675832e+00  2.85146713e+00
 5.12746477e+00  0.00000000e+00  3.82308531e+00
 5.12767506e+00  1.01399362e+00  3.81496525e+00
 6.14580202e+00  0.00000000e+00  2.84436345e+00
 6.14778709e+00  1.01522076e+00  2.84708428e+00
 6.14313269e+00  0.00000000e+00  3.82151794e+00
 6.14894342e+00  1.01215827e+00  3.81501460e+00
 1.01389718e+00  2.04154515e+00  2.90460324e+00
 0.00000000e+00  2.04822445e+00  2.90650344e+00
 1.02949607e+00  2.04489398e+00  3.86699462e+00
 0.00000000e+00  2.04527640e+00  3.86875367e+00
 2.03798366e+00  2.04074669e+00  2.88847756e+00
 2.06207848e+00  2.04659796e+00  3.84775066e+00
 3.06380272e+00  2.04501104e+00  2.86383247e+00
 3.08560944e+00  2.04296470e+00  3.81422138e+00
 4.09760427e+00  2.05064201e+00  2.85964131e+00
 4.10255814e+00  2.03630424e+00  3.80481887e+00
 5.12664270e+00  2.04509377e+00  2.85808182e+00
 5.12813330e+00  2.04127932e+00  3.80763245e+00
 6.15108633e+00  2.04238224e+00  2.85531020e+00
 6.15293121e+00  2.03838897e+00  3.80750084e+00
 1.00987232e+00  3.07216024e+00  2.92898583e+00
 0.00000000e+00  3.07066417e+00  2.92449498e+00
 1.02541757e+00  3.07099271e+00  3.88422966e+00
 0.00000000e+00  3.06878924e+00  3.89595199e+00
 2.03374338e+00  3.06375360e+00  2.90860224e+00
 2.06919742e+00  3.07454181e+00  3.84000850e+00
 3.02932739e+00  3.05605698e+00  2.76176643e+00
 3.10183001e+00  3.06239271e+00  3.78681350e+00
 1.00913715e+00  4.08774519e+00  2.94180131e+00
 0.00000000e+00  4.09127998e+00  2.94055581e+00
 1.01724839e+00  4.09661531e+00  3.91828179e+00
 0.00000000e+00  4.09765530e+00  3.91333771e+00
 0.00000000e+00  5.10216951e+00  2.93868780e+00
 1.01771915e+00  5.12209272e+00  3.91499805e+00
 0.00000000e+00  5.11457062e+00  3.90886569e+00
 2.02497578e+00  4.08776712e+00  2.95942521e+00
 2.04641390e+00  4.10211420e+00  3.90062547e+00
 2.04661822e+00  5.11728096e+00  3.90810609e+00
 0.00000000e+00  6.11961746e+00  2.92120838e+00
 1.02642131e+00  6.14935970e+00  3.87794375e+00
 0.00000000e+00  6.15472937e+00  3.88805461e+00
 2.04896927e+00  6.15889502e+00  3.87230635e+00
 3.06985164e+00  5.10570335e+00  3.83330560e+00
 3.10476112e+00  6.12786007e+00  3.84072709e+00
 0.00000000e+00  0.00000000e+00  4.80624676e+00
 1.03714728e+00  0.00000000e+00  4.80416489e+00
 1.03926265e+00  1.02219629e+00  4.80719185e+00
 0.00000000e+00  1.02058375e+00  4.80825949e+00
 2.06798673e+00  0.00000000e+00  4.80162525e+00
 2.07274580e+00  1.02643120e+00  4.80163193e+00
 3.09278989e+00  0.00000000e+00  4.79791546e+00
 3.09588599e+00  1.02826881e+00  4.79536724e+00
 4.11325550e+00  0.00000000e+00  4.79252005e+00
 4.11200142e+00  1.02550626e+00  4.79103184e+00
 5.13004351e+00  0.00000000e+00  4.79109478e+00
 5.12758827e+00  1.02174664e+00  4.78796577e+00
 6.14387751e+00  0.00000000e+00  4.79119492e+00
 6.14473343e+00  1.02273166e+00  4.78922224e+00
 1.04670930e+00  2.04951334e+00  4.81062746e+00
 0.00000000e+00  2.04386401e+00  4.81730700e+00
 2.08270216e+00  2.05473185e+00  4.79875088e+00
 3.10462952e+00  2.05313826e+00  4.78438425e+00
 4.11603212e+00  2.04688740e+00  4.77319622e+00
 5.12404633e+00  2.03995919e+00  4.76624441e+00
 6.13354015e+00  2.04019761e+00  4.76708508e+00
 1.04852104e+00  3.06683803e+00  4.83703136e+00
 0.00000000e+00  3.07636118e+00  4.84969187e+00
 2.09433484e+00  3.06953955e+00  4.79355383e+00
 3.11996770e+00  3.06484842e+00  4.76426125e+00
 4.11084175e+00  3.02786922e+00  3.73631454e+00
 4.12723351e+00  3.05650425e+00  4.75637865e+00
 1.04981947e+00  4.09125519e+00  4.88038874e+00
 0.00000000e+00  4.08271599e+00  4.86163235e+00
 2.10435081e+00  4.09155750e+00  4.80741262e+00
 1.04299760e+00  5.14200592e+00  4.84255552e+00
 0.00000000e+00  5.14482546e+00  4.84446955e+00
 1.05004883e+00  6.19353390e+00  4.82485294e+00
 0.00000000e+00  6.19146156e+00  4.83144712e+00
 2.07660627e+00  5.12706470e+00  4.83403063e+00
 2.11489129e+00  6.16558886e+00  4.82149076e+00
 3.11448717e+00  5.09016418e+00  4.77559423e+00
 3.15790224e+00  6.10299635e+00  4.78992462e+00
 4.04916811e+00  5.07673883e+00  3.70571852e+00
 4.10057020e+00  6.07952595e+00  3.74089885e+00
 4.14410734e+00  5.05681610e+00  4.75557995e+00
 4.15412855e+00  6.05827379e+00  4.75598955e+00
 5.14458656e+00  5.04828835e+00  3.75571108e+00
 6.14454031e+00  5.03955317e+00  3.75571728e+00
 6.15326881e+00  6.03952503e+00  3.75573707e+00
 5.15327120e+00  6.04828691e+00  3.75578380e+00
 5.14454031e+00  5.04827785e+00  4.75570679e+00
 6.14455843e+00  5.03954887e+00  4.75573921e+00
 6.15325594e+00  6.03951073e+00  4.75572729e+00
 5.15337515e+00  6.04815674e+00  4.75578403e+00
 0.00000000e+00  0.00000000e+00  5.75574636e+00
 1.03975856e+00  0.00000000e+00  5.75574636e+00
 1.04398084e+00  1.02502787e+00  5.75574636e+00
 0.00000000e+00  1.02163589e+00  5.75574636e+00
 2.07356381e+00  0.00000000e+00  5.75574636e+00
 2.07693052e+00  1.02972066e+00  5.75574636e+00
 3.09653783e+00  0.00000000e+00  5.75574636e+00
 3.10107279e+00  1.03196120e+00  5.75574636e+00
 4.11422491e+00  0.00000000e+00  5.75574636e+00
 4.11601353e+00  1.03203893e+00  5.75574636e+00
 5.13074684e+00  0.00000000e+00  5.75574636e+00
 5.12806129e+00  1.02917600e+00  5.75574636e+00
 6.14797258e+00  0.00000000e+00  5.75574636e+00
 6.13890839e+00  1.03312159e+00  5.75574636e+00
 1.05443549e+00  2.04392910e+00  5.75574636e+00
 0.00000000e+00  2.04096389e+00  5.75574636e+00
 2.09299684e+00  2.05453849e+00  5.75574636e+00
 3.11111927e+00  2.05781770e+00  5.75574636e+00
 4.12192631e+00  2.05305648e+00  5.75574636e+00
 5.12370014e+00  2.04643607e+00  5.75574636e+00
 6.12771320e+00  2.04399252e+00  5.75574636e+00
 1.06388617e+00  3.09169984e+00  5.75574636e+00
 0.00000000e+00  3.09692168e+00  5.75574636e+00
 2.10964179e+00  3.07732129e+00  5.75574636e+00
 3.12731433e+00  3.06834149e+00  5.75574636e+00
 4.12750959e+00  3.05709124e+00  5.75574636e+00
 5.12757826e+00  3.04772520e+00  4.75524282e+00
 5.12801027e+00  3.04805374e+00  5.75574636e+00
 6.12867403e+00  3.04087019e+00  4.75489330e+00
 6.12888813e+00  3.04204917e+00  5.75574636e+00
 3.13616228e+00  4.06632948e+00  4.75002909e+00
 3.13940549e+00  4.06962967e+00  5.75574636e+00
 2.13704777e+00  4.08684015e+00  5.75574636e+00
 4.13608170e+00  4.05644369e+00  4.75595570e+00
 4.13619280e+00  4.05665302e+00  5.75574636e+00
 5.13589811e+00  4.04834747e+00  4.75571918e+00
 5.13596630e+00  4.04824352e+00  5.75574636e+00
 6.13581085e+00  4.03991842e+00  4.75573015e+00
 6.13573980e+00  4.03973150e+00  5.75574636e+00
 0.00000000e+00  4.06529808e+00  5.75574636e+00
 1.07761550e+00  4.07805061e+00  5.75574636e+00
 1.06073630e+00  5.15875340e+00  5.75574636e+00
 0.00000000e+00  5.16374302e+00  5.75574636e+00
 5.14449310e+00  5.04827166e+00  5.75574636e+00
 4.14452934e+00  5.05689430e+00  5.75574636e+00
 6.14458466e+00  5.03957510e+00  5.75574636e+00
 1.06492221e+00  6.20380545e+00  5.75574636e+00
 0.00000000e+00  6.20614529e+00  5.75574636e+00
 2.09419584e+00  5.13097382e+00  5.75574636e+00
 2.14065742e+00  6.16289186e+00  5.75574636e+00
 3.12550282e+00  5.07970428e+00  5.75574636e+00
 3.16683197e+00  6.09547901e+00  5.75574636e+00
 4.15463352e+00  6.05745745e+00  5.75574636e+00
 5.15339136e+00  6.04808807e+00  5.75574636e+00
 6.15324306e+00  6.03952074e+00  5.75574636e+00
</DataArray>
</Points>
<PointData Tensors="Stress_Components,Plastic_strain_components" Vevtors="Spatial_displacement,Reaction_force" Scalars="Equivalent_plastic_strain,Stress_Mises,Stress_Max_Principal,Stress_Mid_Principal,Stress_Min_Principal,Stress_Pressure,Stress_Tresca,Stress_Third_Invariant,Plastic_strain_Max_Principal,Plastic_strain_Min_Principal">
<DataArray type="Float32" Name="Stress_Components" NumberOfComponents="9" format="ascii">
7.93960025e+00 -6.63097905e-01 4.00271455e-01 -6.63097905e-01 5.92786267e+00 5.97563372e-01 4.00271455e-01 5.97563372e-01 -1.43792192e+01
-8.84122252e-02 -2.39798927e+00 6.91731956e-01 -2.39798927e+00 -3.89355302e-01 2.39981754e+00 6.91731956e-01 2.39981754e+00 -2.85898310e+01
-4.06186795e+00 4.00539458e-01 1.06828505e+00 4.00539458e-01 6.42750025e-01 -7.31997102e-01 1.06828505e+00 -7.31997102e-01 -3.34270134e+01
1.32990140e+00 -3.36972882e-01 -4.97448934e-01 -3.36972882e-01 2.75102377e+00 -3.21635693e-01 -4.97448934e-01 -3.21635693e-01 -2.57133918e+01
1.59419637e+01 3.08896566e-01 1.44814572e+00 3.08896566e-01 1.73999459e+01 -3.54148748e-01 1.44814572e+00 -3.54148748e-01 6.23139071e+00
1.67158645e+01 -1.16393223e+00 1.42146658e+00 -1.16393223e+00 1.90478445e+01 1.49721481e+00 1.42146658e+00 1.49721481e+00 6.64225497e+00
-1.46659906e+01 2.67556086e-01 7.39204779e-01 2.67556086e-01 -5.57944095e+00 -7.66709104e-01 7.39204779e-01 -7.66709104e-01 -5.00092252e+01
3.56265509e+00 1.04859748e+00 1.03736771e+00 1.04859748e+00 4.53800869e+00 2.17781396e+00 1.03736771e+00 2.17781396e+00 -2.06786282e+01
-8.73077059e+00 -5.72920144e-02 -2.18502870e+00 -5.72920144e-02 -8.88027239e+00 4.48061930e+00 -2.18502870e+00 4.48061930e+00 -4.91364145e+01
-5.26343307e+01 -6.10333279e-01 -1.10477802e+00 -6.10333279e-01 -4.75723267e+01 4.44026542e+00 -1.10477802e+00 4.44026542e+00 -1.39210732e+02
-5.28794047e+01 5.45668022e+00 -2.02723714e+01 5.45668022e+00 -5.42967083e+01 -2.59149548e+00 -2.02723714e+01 -2.59149548e+00 -1.38230395e+02
-3.82778556e+01 2.38455847e+00 -8.03254151e+00 2.38455847e+00 -5.48684254e+01 -2.03698546e+00 -8.03254151e+00 -2.03698546e+00 -1.27975138e+02
3.97605598e-02 -5.89087605e-01 -8.27639108e-02 -5.89087605e-01 6.91819191e-02 -1.87929273e-02 -8.27639108e-02 -1.87929273e-02 -5.35647064e-01
-2.55538573e-01 -3.14954102e-01 -1.92259490e-01 -3.14954102e-01 3.08745801e-02 -9.07657146e-02 -1.92259490e-01 -9.07657146e-02 -2.02041810e-01
3.86082172e-01 -1.86427787e-01 1.45521700e-01 -1.86427787e-01 1.24194309e-01 3.58820989e-01 1.45521700e-01 3.58820989e-01 -9.36964810e-01
2.32980905e-01 -4.60617781e-01 -8.87652785e-02 -4.60617781e-01 -2.85931632e-01 -3.41612220e-01 -8.87652785e-02 -3.41612220e-01 -3.73835891e-01
1.67922810e-01 1.93538979e-01 3.26608181e-01 1.93538979e-01 1.60093710e-01 3.04787755e-01 3.26608181e-01 3.04787755e-01 -3.46044041e-02
-1.30842298e-01 1.06878631e-01 1.91571116e-01 1.06878631e-01 -2.18650132e-01 -7.91085437e-02 1.91571116e-01 -7.91085437e-02 6.42988086e-01
4.85311896e-02 6.68596849e-02 -3.83749843e-01 6.68596849e-02 1.34101644e-01 -4.71835136e-01 -3.83749843e-01 -4.71835136e-01 1.10796094e-01
-2.80572385e-01 1.53527796e-01 -8.13582465e-02 1.53527796e-01 -1.15081996e-01 2.73443818e-01 -8.13582465e-02 2.73443818e-01 6.89060926e-01
-2.69288063e-01 1.07911984e-02 9.16424632e-01 1.07911984e-02 3.32833290e-01 -1.63214847e-01 9.16424632e-01 -1.63214847e-01 -2.99326954e+01
1.92982126e-01 2.51474686e-01 5.57019837e-01 2.51474686e-01 2.67287046e-02 3.74584138e-01 5.57019837e-01 3.74584138e-01 -2.97267423e+01
2.12488097e+00 -9.02262907e-01 9.59616134e-01 -9.02262907e-01 2.67819313e+00 4.81009129e-01 9.59616134e-01 4.81009129e-01 -2.46348588e+01
-4.61260855e-01 1.65830661e-01 1.00900133e+00 1.65830661e-01 1.04225792e+00 -5.50729372e-01 1.00900133e+00 -5.50729372e-01 -2.93125315e+01
3.94403207e+00 -1.48305418e-02 1.06735271e+00 -1.48305418e-02 1.61659718e+00 4.16553020e-02 1.06735271e+00 4.16553020e-02 -2.38590932e+01
7.23622933e-01 1.64694447e-01 3.90463889e-01 1.64694447e-01 -8.55339527e-01 1.13618846e+00 3.90463889e-01 1.13618846e+00 -3.00088043e+01
2.09921643e+00 2.82252219e-01 1.15703506e+00 2.82252219e-01 3.85801688e-01 6.40913323e-01 1.15703506e+00 6.40913323e-01 -2.71528020e+01
1.79632097e-01 3.70015331e-01 1.34028478e+00 3.70015331e-01 -2.17519397e+00 -7.16556355e-01 1.34028478e+00 -7.16556355e-01 -3.19614100e+01
3.69701119e+00 -1.15209472e+00 5.53855896e-01 -1.15209472e+00 1.73381877e+00 1.38647290e-01 5.53855896e-01 1.38647290e-01 -2.40181887e+01
4.49786122e+00 -1.24414293e+00 1.25548477e+00 -1.24414293e+00 3.58344500e+00 9.34930446e-01 1.25548477e+00 9.34930446e-01 -2.08159747e+01
1.43181503e+00 1.92421045e-01 1.56934506e-01 1.92421045e-01 3.58147681e-01 7.13137090e-01 1.56934506e-01 7.13137090e-01 -2.80580792e+01
-1.01753868e+00 1.38663688e-01 1.34179851e+00 1.38663688e-01 -9.99315724e-01 1.90498890e+00 1.34179851e+00 1.90498890e+00 -3.19335537e+01
6.03256661e+00 1.54719388e-01 1.66720765e-01 1.54719388e-01 2.98844776e+00 7.57537480e-01 1.66720765e-01 7.57537480e-01 -2.00053209e+01
7.69937965e+00 -3.96464707e-01 -2.65642554e-02 -3.96464707e-01 5.07278451e+00 -9.12806764e-02 -2.65642554e-02 -9.12806764e-02 -1.59691634e+01
3.22741514e+00 -6.17271259e-01 1.11384019e-01 -6.17271259e-01 1.41564742e+00 1.01450461e+00 1.11384019e-01 1.01450461e+00 -2.48787613e+01
6.24578074e-01 -7.67035947e-01 -5.57016134e-02 -7.67035947e-01 1.48883909e-02 7.80910486e-01 -5.57016134e-02 7.80910486e-01 -2.91334908e+01
8.44149977e+00 3.02887052e-01 -3.10918463e-01 3.02887052e-01 4.88587549e+00 1.82596844e-01 -3.10918463e-01 1.82596844e-01 -1.52953759e+01
1.66554746e+00 3.26510438e-01 -9.02611226e-01 3.26510438e-01 -9.13796782e-01 9.56394761e-02 -9.02611226e-01 9.56394761e-02 -2.89125757e+01
3.91673613e+00 -2.93685660e-01 -7.60885224e-01 -2.93685660e-01 1.15983277e+00 7.17460260e-01 -7.60885224e-01 7.17460260e-01 -2.44017911e+01
8.75817760e+00 -8.31464276e-01 -3.00439885e-01 -8.31464276e-01 6.91912146e+00 -5.00873210e-01 -3.00439885e-01 -5.00873210e-01 -1.29678583e+01
1.14179153e+01 1.47190318e-02 2.11827874e-01 1.47190318e-02 8.70092982e+00 -3.31513837e-01 2.11827874e-01 -3.31513837e-01 -8.05587769e+00
5.10911632e+00 1.04046460e-01 -3.02992229e-01 1.04046460e-01 2.68283355e+00 5.76700787e-02 -3.02992229e-01 5.76700787e-02 -2.14352852e+01
9.63334438e+00 3.80976114e-03 -9.52565446e-01 3.80976114e-03 8.45245539e+00 -1.86695668e-01 -9.52565446e-01 -1.86695668e-01 -1.04154897e+01
5.40126590e+00 -2.89045500e-01 -8.74828866e-01 -2.89045500e-01 4.07416660e+00 -5.14494840e-01 -8.74828866e-01 -5.14494840e-01 -1.94966640e+01
1.59610786e+01 -1.00109374e-01 2.06039600e-01 -1.00109374e-01 1.42563419e+01 -5.80883473e-01 2.06039600e-01 -5.80883473e-01 2.91306305e+00
1.33189779e+01 -1.58204395e-01 -4.49923005e-01 -1.58204395e-01 1.14882912e+01 -3.05720046e-01 -4.49923005e-01 -3.05720046e-01 -3.07178974e+00
1.47597425e+01 9.69051763e-01 -4.86159343e-01 9.69051763e-01 1.45469813e+01 -8.33625942e-01 -4.86159343e-01 -8.33625942e-01 1.74837112e+00
1.07566156e+01 5.46420198e-01 -2.12426271e-01 5.46420198e-01 9.23745215e+00 -6.70181247e-01 -2.12426271e-01 -6.70181247e-01 -8.11109710e+00
1.49491572e+00 -1.52347959e+00 2.55409610e+00 -1.52347959e+00 4.74760148e+00 2.18646068e-01 2.55409610e+00 2.18646068e-01 -2.19606731e+01
7.18471289e-01 -1.29963697e+00 1.98948412e+00 -1.29963697e+00 5.30809749e+00 -3.69601257e-01 1.98948412e+00 -3.69601257e-01 -2.27503986e+01
-4.62261961e+00 1.57152280e-01 3.86376779e+00 1.57152280e-01 -6.71279651e+00 1.91400681e+00 3.86376779e+00 1.91400681e+00 -4.12403556e+01
3.36677909e-01 -1.16981495e-01 2.17814025e+00 -1.16981495e-01 -1.90643251e-01 -2.28285469e-01 2.17814025e+00 -2.28285469e-01 -2.96085393e+01
6.29934798e+00 5.52173625e-01 3.00325180e+00 5.52173625e-01 4.84332561e+00 1.49939081e+00 3.00325180e+00 1.49939081e+00 -2.12933494e+01
-2.73883854e+00 1.09026726e+00 8.33490048e-01 1.09026726e+00 -2.91403913e+00 -4.61168490e-01 8.33490048e-01 -4.61168490e-01 -3.54131946e+01
-4.67648552e+01 -2.75141212e+00 -1.07797412e+01 -2.75141212e+00 -4.70733788e+01 -1.28306939e+00 -1.07797412e+01 -1.28306939e+00 -1.23496599e+02
4.17066397e+00 1.07268112e+00 -2.53762762e+00 1.07268112e+00 6.44086429e+00 8.51788603e-01 -2.53762762e+00 8.51788603e-01 -1.97924683e+01
-3.40543709e+01 -3.64081517e-01 -3.67875028e+00 -3.64081517e-01 -3.05395927e+01 1.98332575e+00 -3.67875028e+00 1.98332575e+00 -9.93723907e+01
-1.94996619e+01 -9.81696457e-01 -1.23775994e+01 -9.81696457e-01 -2.43408607e+01 9.64059436e-01 -1.23775994e+01 9.64059436e-01 -6.70027134e+01
-2.06707163e+01 -4.87729914e-01 -1.86988220e-01 -4.87729914e-01 -1.86088433e+01 1.70237013e+00 -1.86988220e-01 1.70237013e+00 -7.24142189e+01
-2.75947280e+01 3.00191324e-01 -4.20851338e+00 3.00191324e-01 -2.39821372e+01 -7.58337468e-01 -4.20851338e+00 -7.58337468e-01 -8.53988152e+01
-1.06822782e+01 -2.49643505e-01 -5.04825570e-01 -2.49643505e-01 -6.64924043e+00 3.88764694e-01 -5.04825570e-01 3.88764694e-01 -4.85940971e+01
-2.60387583e+01 -1.06724957e+00 -4.18132019e+00 -1.06724957e+00 -2.05632362e+01 -3.71805029e+00 -4.18132019e+00 -3.71805029e+00 -7.88202534e+01
-3.28424893e+00 -6.67450596e-01 4.50135647e+00 -6.67450596e-01 1.07504647e+00 8.63616228e-01 4.50135647e+00 8.63616228e-01 -3.02250479e+01
8.65384084e+00 4.80038315e-01 2.33832563e+00 4.80038315e-01 1.20178756e+01 -4.17216660e-01 2.33832563e+00 -4.17216660e-01 -6.87479687e+00
-3.19968077e+00 -5.45631707e-01 4.23494535e+00 -5.45631707e-01 -4.18062627e+00 7.98487124e-01 4.23494535e+00 7.98487124e-01 -3.64366392e+01
7.97196317e+00 1.72263362e-01 2.30254313e+00 1.72263362e-01 9.59737366e+00 -3.91261697e-01 2.30254313e+00 -3.91261697e-01 -1.06729491e+01
-6.78267345e+01 -8.01769674e+00 1.18431874e+01 -8.01769674e+00 -6.16874790e+01 -1.31815242e+01 1.18431874e+01 -1.31815242e+01 -1.54281178e+02
-1.84586384e+01 1.73271058e+00 1.02427132e+00 1.73271058e+00 -2.44675302e+01 -4.21486374e+00 1.02427132e+00 -4.21486374e+00 -7.58901211e+01
7.23803759e+00 -5.76199198e+00 -1.87435837e+01 -5.76199198e+00 9.03329372e+00 -5.96498728e+00 -1.87435837e+01 -5.96498728e+00 3.73895226e+01
1.46902962e+01 -1.96876256e+00 -4.08349228e+00 -1.96876256e+00 1.48978726e+01 -4.58665363e+00 -4.08349228e+00 -4.58665363e+00 2.58297920e+00
1.25205693e+01 -1.49884743e-01 3.40964113e-02 -1.49884743e-01 1.41410720e+01 1.15206885e+00 3.40964113e-02 1.15206885e+00 -1.19728075e+00
8.98715252e+00 -7.35840157e-01 2.16306328e+00 -7.35840157e-01 1.13182680e+01 2.46939249e-01 2.16306328e+00 2.46939249e-01 -6.97720832e+00
1.93283016e+01 -4.52498525e-01 7.33685397e-01 -4.52498525e-01 2.20503342e+01 1.31912506e+00 7.33685397e-01 1.31912506e+00 1.60155002e+01
1.37688585e+01 -6.05798166e-01 1.93420500e+00 -6.05798166e-01 1.51569238e+01 9.43931431e-01 1.93420500e+00 9.43931431e-01 1.63596344e+00
1.05384630e+01 3.68186269e-01 -1.81642398e-02 3.68186269e-01 1.17790612e+01 7.03811985e-01 -1.81642398e-02 7.03811985e-01 -5.67249393e+00
7.15626516e+00 9.60279414e-01 3.65733325e-01 9.60279414e-01 8.51749453e+00 1.95721384e+00 3.65733325e-01 1.95721384e+00 -1.23981145e+01
7.69718146e+00 1.46158196e+00 2.13650875e-01 1.46158196e+00 1.03427807e+01 5.79229955e-01 2.13650875e-01 5.79229955e-01 -1.00934518e+01
-2.90647259e+01 5.19391172e-01 4.89796205e+00 5.19391172e-01 -2.61513598e+01 1.47603836e+01 4.89796205e+00 1.47603836e+01 -7.75762496e+01
-7.04668789e+01 -2.63591188e+00 1.44481263e+01 -2.63591188e+00 -7.48604393e+01 6.93686152e+00 1.44481263e+01 6.93686152e+00 -1.83727707e+02
-1.11245964e+01 -2.68559930e+00 -2.87538400e+00 -2.68559930e+00 -5.28957710e+00 1.95316582e+00 -2.87538400e+00 1.95316582e+00 -4.56958450e+01
-1.94344139e+00 -1.19074922e-01 3.62959146e-01 -1.19074922e-01 1.49071264e+00 1.34332465e+00 3.62959146e-01 1.34332465e+00 -3.02200899e+01
1.00354342e+01 1.12216930e+00 -6.37849122e-01 1.12216930e+00 9.95379353e+00 5.39916694e-01 -6.37849122e-01 5.39916694e-01 -8.80194283e+00
-4.18436432e+00 -1.50545691e+00 2.45847625e+00 -1.50545691e+00 1.24888420e+00 -6.70941249e-01 2.45847625e+00 -6.70941249e-01 -3.27475033e+01
-1.49814291e+01 -2.70258549e+00 -3.56338093e+00 -2.70258549e+00 -1.24794879e+01 5.36080790e+00 -3.56338093e+00 5.36080790e+00 -5.59769906e+01
-6.17525851e+01 7.39325603e+00 -3.20765962e-01 7.39325603e+00 -4.12538363e+01 -2.89500687e+01 -3.20765962e-01 -2.89500687e+01 -1.04974423e+02
-1.20102463e+01 -2.15431082e+00 -2.33980725e+00 -2.15431082e+00 -1.28110516e+01 -8.45932945e+00 -2.33980725e+00 -8.45932945e+00 -4.57902740e+01
2.80983749e+00 -1.71711165e-02 2.58372016e-01 -1.71711165e-02 -1.75908923e+00 -2.41277315e-01 2.58372016e-01 -2.41277315e-01 -2.85106344e+01
7.22954690e-01 3.22671622e-01 1.89529054e-01 3.22671622e-01 -2.29067016e+00 7.50221428e-01 1.89529054e-01 7.50221428e-01 -3.14892020e+01
5.54056183e-01 1.09842159e+00 6.88831773e-01 1.09842159e+00 -2.62248367e+00 5.57582591e-01 6.88831773e-01 5.57582591e-01 -3.19275652e+01
1.82152328e+00 3.09397575e-01 7.23006472e-01 3.09397575e-01 -2.88168991e+00 -2.68484864e-01 7.23006472e-01 -2.68484864e-01 -3.07432638e+01
-3.69696075e+00 9.46468309e-01 -2.68351417e-01 9.46468309e-01 -3.08808172e+00 1.15043087e+00 -2.68351417e-01 1.15043087e+00 -3.71936712e+01
-4.04365842e+00 1.78354949e+00 5.50529484e-01 1.78354949e+00 -3.34678393e+00 1.16813023e+00 5.50529484e-01 1.16813023e+00 -3.76042753e+01
-5.03154251e+00 6.48251355e-01 -9.57900034e-02 6.48251355e-01 -2.53643137e+00 4.03593563e-01 -9.57900034e-02 4.03593563e-01 -3.81529078e+01
-7.64408494e+00 9.24666727e-01 1.28615573e-02 9.24666727e-01 -3.11487887e+00 1.57438511e+00 1.28615573e-02 1.57438511e+00 -4.10454817e+01
-3.51198861e+00 -7.62719184e-01 -8.05427413e-03 -7.62719184e-01 -6.65944386e-01 3.61971736e-01 -8.05427413e-03 3.61971736e-01 -3.44377522e+01
-2.93904705e+00 -5.84210418e-01 -6.76465742e-01 -5.84210418e-01 9.59084272e-01 1.18581287e-01 -6.76465742e-01 1.18581287e-01 -3.17584899e+01
-5.25629818e-02 -7.10564494e-01 -4.53897409e-01 -7.10564494e-01 3.25239852e+00 -1.46184217e-01 -4.53897409e-01 -1.46184217e-01 -2.63674216e+01
2.48201039e+00 -1.25249579e+00 -1.40325119e+00 -1.25249579e+00 4.03076023e+00 -2.81055510e-01 -1.40325119e+00 -2.81055510e-01 -2.26352600e+01
-1.27109861e+00 2.55748451e-01 1.53321028e-02 2.55748451e-01 3.91423166e+00 -3.40603277e-01 1.53321028e-02 -3.40603277e-01 -2.68150969e+01
-6.21806830e-01 -1.36169626e+00 -7.03002650e-01 -1.36169626e+00 1.57047272e+00 -1.69122343e+00 -7.03002650e-01 -1.69122343e+00 -2.83158889e+01
-3.80766323e+00 1.81376451e+00 1.70943069e+00 1.81376451e+00 -9.16104615e+00 1.54829059e+00 1.70943069e+00 1.54829059e+00 -4.32091072e+01
-8.78899336e-01 8.98422047e-01 1.66322733e+00 8.98422047e-01 -6.21233368e+00 -4.45660606e-01 1.66322733e+00 -4.45660606e-01 -3.70790482e+01
-1.38367832e+00 2.19005024e+00 4.08114905e-01 2.19005024e+00 -2.16179490e+00 4.39771999e-01 4.08114905e-01 4.39771999e-01 -3.34987864e+01
5.12810186e+00 2.09317566e+00 -3.47452184e+00 2.09317566e+00 5.90195194e+00 -3.55084583e-01 -3.47452184e+00 -3.55084583e-01 -1.60954098e+01
7.40729707e+00 4.00279194e-01 -3.09416212e+00 4.00279194e-01 1.02849336e+01 -2.70606524e-01 -3.09416212e+00 -2.70606524e-01 -1.09424584e+01
-8.44084422e-01 -1.39827141e+00 -4.76778333e+00 -1.39827141e+00 2.55687916e+00 -1.88326276e+00 -4.76778333e+00 -1.88326276e+00 -2.73241854e+01
-3.24131457e+00 -4.06781240e+00 -6.92130605e+00 -4.06781240e+00 -5.73554420e+00 -4.06150691e+00 -6.92130605e+00 -4.06150691e+00 -3.63311036e+01
-1.28762200e+01 3.63139262e-02 5.84855247e+00 3.63139262e-02 -2.26408704e+01 -1.07040523e+00 5.84855247e+00 -1.07040523e+00 -6.59311034e+01
-2.32532014e+01 -1.97542433e+00 6.96035250e+00 -1.97542433e+00 -3.15250702e+01 -1.97518746e+00 6.96035250e+00 -1.97518746e+00 -8.71629690e+01
5.88219372e+00 1.89685299e+00 2.07932626e-01 1.89685299e+00 -1.39862907e+00 -3.53883449e+00 2.07932626e-01 -3.53883449e+00 -2.33583986e+01
2.52918604e+01 2.09651614e+00 -3.73668407e+00 2.09651614e+00 2.54515160e+01 1.07441201e+00 -3.73668407e+00 1.07441201e+00 2.57880144e+01
1.10949984e+01 -5.82738352e+00 -5.65787125e+00 -5.82738352e+00 4.28658772e+00 -9.92537117e+00 -5.65787125e+00 -9.92537117e+00 2.86248684e+01
1.67964949e+01 1.52013242e-02 -1.78612686e+00 1.52013242e-02 1.55894760e+01 -4.15447214e+00 -1.78612686e+00 -4.15447214e+00 9.71791525e+00
-1.42426771e+01 -1.83979258e-01 9.96444941e-01 -1.83979258e-01 -1.54643702e+01 6.26986575e+00 9.96444941e-01 6.26986575e+00 -5.77910666e+01
-5.61917130e+00 7.35754102e-01 -2.56097591e+00 7.35754102e-01 -8.34491078e+00 3.49754373e+00 -2.56097591e+00 3.49754373e+00 -4.44561488e+01
-6.01930618e+01 -5.55241418e+00 5.84008622e+00 -5.55241418e+00 -9.02621689e+01 -1.11762371e+01 5.84008622e+00 -1.11762371e+01 -1.88985199e+02
-1.69759970e+01 -5.93136636e-02 -1.09612338e+00 -5.93136636e-02 -1.32849001e+01 4.32225275e+00 -1.09612338e+00 4.32225275e+00 -6.20135727e+01
-6.83917546e+00 -1.88487532e-01 3.01619613e+00 -1.88487532e-01 -4.27215791e+00 2.96541568e-01 3.01619613e+00 2.96541568e-01 -4.19700403e+01
7.66644478e-02 -3.74932472e-01 1.44225217e+00 -3.74932472e-01 -2.54304576e+00 2.31216381e+00 1.44225217e+00 2.31216381e+00 -3.21816812e+01
3.31044483e+00 1.04590148e-01 1.84300554e+00 1.04590148e-01 2.24432802e+00 -1.32399067e+00 1.84300554e+00 -1.32399067e+00 -2.36032023e+01
-2.27944500e+01 1.29539801e+00 -1.12317747e+00 1.29539801e+00 -2.74816709e+01 -4.86973429e+00 -1.12317747e+00 -4.86973429e+00 -8.26544589e+01
-8.18523121e+00 -1.83990708e+00 -2.24452892e+00 -1.83990708e+00 -1.77833398e+01 5.73408300e+00 -2.24452892e+00 5.73408300e+00 -5.43859675e+01
1.90812486e+01 1.27392188e+00 2.67669212e-01 1.27392188e+00 5.98152065e+00 5.26267549e+00 2.67669212e-01 5.26267549e+00 -1.13281884e+01
8.26357368e+00 -1.76451217e+00 1.28752318e+00 -1.76451217e+00 1.71324446e+01 -9.68892857e-01 1.28752318e+00 -9.68892857e-01 -2.45753121e+00
6.95303268e+01 -1.05913579e+00 1.10069048e+00 -1.05913579e+00 5.35914421e+01 1.55852461e+01 1.10069048e+00 1.55852461e+01 6.93689957e+01
4.92166824e+01 1.44337475e+00 1.19003868e+00 1.44337475e+00 4.22469215e+01 9.75347996e+00 1.19003868e+00 9.75347996e+00 6.24611855e+01
7.24002647e+00 -4.21787494e+00 -1.66216730e+00 -4.21787494e+00 4.56610966e+00 4.69121665e-01 -1.66216730e+00 4.69121665e-01 9.31431532e-01
1.98138332e+00 -6.70706898e+00 -1.33590013e+00 -6.70706898e+00 1.25633837e+01 -6.23600554e+00 -1.33590013e+00 -6.23600554e+00 5.91026370e+00
-8.60458910e-01 -1.04789793e+00 1.29959667e+00 -1.04789793e+00 1.02497494e+00 -8.24724317e-01 1.29959667e+00 -8.24724317e-01 -6.96383357e-01
-8.51091087e-01 -1.45192802e-01 3.32833260e-01 -1.45192802e-01 -8.06073472e-02 4.99030709e-01 3.32833260e-01 4.99030709e-01 3.99868965e-01
7.96178997e-01 -7.02550948e-01 1.25819132e-01 -7.02550948e-01 -2.39033014e-01 -1.22381306e+00 1.25819132e-01 -1.22381306e+00 -1.08898842e+00
2.77576566e-01 -1.60564125e+00 -1.19547069e+00 -1.60564125e+00 3.57498705e-01 1.21825981e+00 -1.19547069e+00 1.21825981e+00 -1.16695070e+00
6.82924547e+00 2.73652010e+00 1.21839331e+00 2.73652010e+00 -2.59594078e+00 1.22687644e+00 1.21839331e+00 1.22687644e+00 -7.03417873e-01
1.45203696e+00 -3.38260005e-01 2.25979606e-01 -3.38260005e-01 -5.47901233e+00 1.16264677e+00 2.25979606e-01 1.16264677e+00 -3.73129606e-01
-3.18567276e+00 1.10267556e+00 -2.78640291e-01 1.10267556e+00 1.80228770e-01 -1.45139843e+00 -2.78640291e-01 -1.45139843e+00 3.97754021e-01
-5.18665747e+00 -3.01116196e+00 -5.03343781e-01 -3.01116196e+00 2.04709009e+00 -1.34296739e+00 -5.03343781e-01 -1.34296739e+00 3.19816786e+00
1.52726185e+00 -1.73653830e-02 -7.06120953e-03 -1.73653830e-02 -3.40372920e+00 9.83027741e-04 -7.06120953e-03 9.83027741e-04 -3.16344490e+01
4.43130136e-01 5.11085466e-01 -1.20436617e-02 5.11085466e-01 -2.68245327e+00 4.53196108e-01 -1.20436617e-02 4.53196108e-01 -3.22350349e+01
-3.86183083e-01 1.56284076e+00 3.83653089e-01 1.56284076e+00 -4.55993686e+00 6.83469191e-01 3.83653089e-01 6.83469191e-01 -3.48725209e+01
1.85614705e+00 4.01030943e-01 2.90187061e-01 4.01030943e-01 -3.98383522e+00 -1.04127349e-02 2.90187061e-01 -1.04127349e-02 -3.17523413e+01
-5.12795597e+00 6.02230400e-01 -9.40235052e-03 6.02230400e-01 -3.82686269e+00 1.16348773e+00 -9.40235052e-03 1.16348773e+00 -3.95349445e+01
-5.28014472e+00 2.67947087e+00 4.80267160e-01 2.67947087e+00 -4.70006487e+00 8.51106510e-01 4.80267160e-01 8.51106510e-01 -4.02420430e+01
-9.70090127e+00 1.19588137e+00 2.61051245e-02 1.19588137e+00 -4.11304438e+00 9.19503689e-01 2.61051245e-02 9.19503689e-01 -4.44431562e+01
-1.00178818e+01 1.97565299e+00 1.08403999e+00 1.97565299e+00 -4.27078965e+00 1.53080827e+00 1.08403999e+00 1.53080827e+00 -4.46113863e+01