<VTKFile type="UnstructuredGrid" version="0.1" byte_order="LittleEndian">
<UnstructuredGrid>
<Piece NumberOfPoints="173" NumberOfCells="80">
<Points>
<DataArray type="Float64" NumberOfComponents="3" format="ascii">
 0.00000000e+00  0.00000000e+00  0.00000000e+00
 1.04629421e+00  0.00000000e+00  0.00000000e+00
 1.04936814e+00  1.08259523e+00  0.00000000e+00
 0.00000000e+00  1.07967114e+00  0.00000000e+00
 0.00000000e+00  0.00000000e+00  9.02412593e-01
 1.04542780e+00  0.00000000e+00  8.98726404e-01
 1.04642665e+00  1.07709455e+00  9.03392434e-01
 0.00000000e+00  1.07596612e+00  9.05155063e-01
 2.09693217e+00  0.00000000e+00  0.00000000e+00
 2.09819484e+00  1.08857000e+00  0.00000000e+00
 2.09447598e+00  0.00000000e+00  8.92273188e-01
 2.09690642e+00  1.08047855e+00  8.97609234e-01
 3.14869833e+00  0.00000000e+00  0.00000000e+00
 3.15356493e+00  1.09703481e+00  0.00000000e+00
 3.15452194e+00  0.00000000e+00  8.86535525e-01
 3.14863753e+00  1.08339024e+00  8.86963964e-01
 4.21734333e+00  0.00000000e+00  0.00000000e+00
 4.20440912e+00  1.10316122e+00  0.00000000e+00
 4.22146225e+00  0.00000000e+00  8.78001451e-01
 4.20695591e+00  1.08374071e+00  8.81073534e-01
 5.28350258e+00  0.00000000e+00  0.00000000e+00
 5.26832628e+00  1.11035049e+00  0.00000000e+00
 5.28976679e+00  0.00000000e+00  8.69740605e-01
 5.27836132e+00  1.08675778e+00  8.75082612e-01
 6.35768509e+00  0.00000000e+00  0.00000000e+00
 6.31502676e+00  1.13678682e+00  0.00000000e+00
 6.35423326e+00  0.00000000e+00  8.68640840e-01
 6.34372902e+00  1.11178327e+00  8.63047838e-01
 1.05365396e+00  2.14800668e+00  0.00000000e+00
 0.00000000e+00  2.14562249e+00  0.00000000e+00
 1.04943240e+00  2.14323020e+00  9.15042162e-01
 0.00000000e+00  2.13953733e+00  9.15858507e-01
 2.10664392e+00  2.16044807e+00  0.00000000e+00
 2.09792542e+00  2.15035510e+00  9.13685083e-01
 3.14986563e+00  2.17130828e+00  0.00000000e+00
 3.14304352e+00  2.15868759e+00  9.22272682e-01
 4.18591261e+00  2.19333506e+00  0.00000000e+00
 4.18881273e+00  2.15754771e+00  9.19289112e-01
 5.20974207e+00  2.19399405e+00  0.00000000e+00
 5.22633600e+00  2.16262817e+00  9.24054503e-01
 6.24399376e+00  2.23255658e+00  0.00000000e+00
 6.27151537e+00  2.19826174e+00  9.24406946e-01
 1.05726016e+00  3.18886638e+00  0.00000000e+00
 0.00000000e+00  3.18548727e+00  0.00000000e+00
 1.05152738e+00  3.19007039e+00  9.30001438e-01
 0.00000000e+00  3.18809390e+00  9.31363523e-01
 2.11519122e+00  3.19142270e+00  0.00000000e+00
 2.10505462e+00  3.19262266e+00  9.44310546e-01
 3.14724231e+00  3.20033026e+00  0.00000000e+00
 3.14042735e+00  3.19753575e+00  9.83823359e-01
 4.15408278e+00  3.20731211e+00  0.00000000e+00
 4.14522409e+00  3.19564319e+00  1.00650895e+00
 5.17035961e+00  3.19950032e+00  0.00000000e+00
 5.17249012e+00  3.17732596e+00  1.01572013e+00
 6.17288399e+00  3.24057746e+00  0.00000000e+00
 6.17999744e+00  3.23738408e+00  1.00493908e+00
 1.05985141e+00  4.21128845e+00  0.00000000e+00
 0.00000000e+00  4.21601963e+00  0.00000000e+00
 1.05236661e+00  4.21396160e+00  9.39006567e-01
 0.00000000e+00  4.21961403e+00  9.37160015e-01
 2.11462665e+00  4.20695400e+00  0.00000000e+00
 2.10248089e+00  4.20281267e+00  9.57019389e-01
 3.14225960e+00  4.20015669e+00  0.00000000e+00
 3.13343525e+00  4.19882202e+00  9.91862357e-01
 4.13884068e+00  4.20605373e+00  0.00000000e+00
 4.13845921e+00  4.20604897e+00  9.99960661e-01
 6.13875532e+00  4.20921516e+00  0.00000000e+00
 5.13881254e+00  4.20745611e+00  0.00000000e+00
 6.13887835e+00  4.20924664e+00  9.99726474e-01
 5.13887644e+00  4.20739317e+00  1.00001752e+00
 1.05767465e+00  5.23252773e+00  0.00000000e+00
 0.00000000e+00  5.24295902e+00  0.00000000e+00
 1.05434024e+00  5.24026203e+00  9.36724484e-01
 0.00000000e+00  5.24472475e+00  9.29270029e-01
 2.11260748e+00  5.21439934e+00  0.00000000e+00
 2.09613919e+00  5.21807289e+00  9.50302482e-01
 3.13356662e+00  5.20140362e+00  0.00000000e+00
 3.12670183e+00  5.20581102e+00  9.87511873e-01
 4.13740253e+00  5.20614529e+00  0.00000000e+00
 4.13716459e+00  5.20616007e+00  1.00024390e+00
 5.13724947e+00  5.20756149e+00  0.00000000e+00
 5.13734436e+00  5.20754099e+00  1.00002861e+00
 6.13736820e+00  5.20897436e+00  0.00000000e+00
 6.13738537e+00  5.20890951e+00  1.00000799e+00
 1.06515360e+00  6.26932383e+00  0.00000000e+00
 0.00000000e+00  6.27410936e+00  0.00000000e+00
 1.05858469e+00  6.27074385e+00  9.23231542e-01
 0.00000000e+00  6.28125858e+00  9.16812301e-01
 2.12110472e+00  6.23837662e+00  0.00000000e+00
 2.09952831e+00  6.25817490e+00  9.29062963e-01
 3.13981104e+00  6.21295452e+00  0.00000000e+00
 3.13229728e+00  6.23018360e+00  9.67708588e-01
 4.13701344e+00  6.20678091e+00  0.00000000e+00
 4.13634443e+00  6.20680714e+00  1.00053704e+00
 5.13600588e+00  6.20741415e+00  0.00000000e+00
 5.13611698e+00  6.20750046e+00  9.99966562e-01
 6.13597012e+00  6.20893240e+00  0.00000000e+00
 6.13599682e+00  6.20890427e+00  9.99995112e-01
 0.00000000e+00  0.00000000e+00  1.81272542e+00
 1.04569757e+00  0.00000000e+00  1.80535662e+00
 1.04510403e+00  1.06499648e+00  1.81300974e+00
 0.00000000e+00  1.06579101e+00  1.81387401e+00
 2.10187984e+00  0.00000000e+00  1.79595268e+00
 2.09149408e+00  1.05817688e+00  1.80068243e+00
 3.15801215e+00  0.00000000e+00  1.78394413e+00
 3.15801454e+00  1.05779350e+00  1.78293347e+00
 4.23046684e+00  0.00000000e+00  1.76506925e+00
 4.22465611e+00  1.05820680e+00  1.77697682e+00
 5.30507040e+00  0.00000000e+00  1.75219750e+00
 5.29752636e+00  1.06025624e+00  1.76556385e+00
 6.36459923e+00  0.00000000e+00  1.74690557e+00
 6.37710524e+00  1.06837475e+00  1.75477147e+00
 1.03942502e+00  2.12754655e+00  1.83030212e+00
 0.00000000e+00  2.13427854e+00  1.83540130e+00
 2.08862782e+00  2.12660670e+00  1.82362938e+00
 3.14242506e+00  2.13094759e+00  1.81899881e+00
 4.21421242e+00  2.14635801e+00  1.80045784e+00
 5.28840876e+00  2.14870024e+00  1.80673027e+00
 6.35294867e+00  2.16011310e+00  1.79442441e+00
 1.03472173e+00  3.18497825e+00  1.85921264e+00
 0.00000000e+00  3.18804646e+00  1.86421096e+00
 2.07530951e+00  3.18667936e+00  1.87324452e+00
 3.06703997e+00  3.15969992e+00  2.01103806e+00
 1.03711617e+00  4.23262405e+00  1.88505232e+00
 0.00000000e+00  4.22650766e+00  1.87549758e+00
 2.08203506e+00  4.21213245e+00  1.91549277e+00
 3.10526586e+00  4.17887974e+00  1.96281064e+00
 1.04610181e+00  5.25233126e+00  1.87596166e+00
 0.00000000e+00  5.26020288e+00  1.86854935e+00
 2.07670498e+00  5.23956776e+00  1.89855075e+00
 3.12984705e+00  5.22152185e+00  1.92171848e+00
 1.04071867e+00  6.29678917e+00  1.84461534e+00
 0.00000000e+00  6.29576969e+00  1.83878219e+00
 2.07843685e+00  6.30326176e+00  1.85349488e+00
 3.14092541e+00  6.28959513e+00  1.85688019e+00
 5.13738108e+00  5.20758629e+00  2.00003386e+00
 6.13738203e+00  5.20892715e+00  2.00003195e+00
 6.13603926e+00  6.20893526e+00  1.99998271e+00
 5.13601160e+00  6.20760059e+00  1.99996555e+00
 0.00000000e+00  0.00000000e+00  2.72094202e+00
 1.05311680e+00  0.00000000e+00  2.71895695e+00
 1.05635226e+00  1.05836987e+00  2.72483540e+00
 0.00000000e+00  1.05612707e+00  2.73008752e+00
 2.11795235e+00  0.00000000e+00  2.70456743e+00
 2.10542846e+00  1.05023372e+00  2.71364450e+00
 3.17548442e+00  0.00000000e+00  2.68875098e+00
 3.17667341e+00  1.04555237e+00  2.69266939e+00
 4.24475145e+00  0.00000000e+00  2.67513108e+00
 4.24776936e+00  1.04726219e+00  2.67016172e+00
 5.31793022e+00  0.00000000e+00  2.65845752e+00
 5.31827927e+00  1.05015957e+00  2.66075444e+00
 6.38569212e+00  0.00000000e+00  2.65322375e+00
 6.38508940e+00  1.05115831e+00  2.65476346e+00
 1.04001606e+00  2.11046457e+00  2.74625373e+00
 0.00000000e+00  2.12553978e+00  2.74970484e+00
 2.10548043e+00  2.11268806e+00  2.72447252e+00
 3.16596460e+00  2.11924076e+00  2.68118310e+00
 4.24266148e+00  2.13165808e+00  2.66994238e+00
 5.31207943e+00  2.12425089e+00  2.67244935e+00
 6.37168026e+00  2.13249254e+00  2.66688800e+00
 1.03599000e+00  3.18895245e+00  2.79113150e+00
 0.00000000e+00  3.18564963e+00  2.78722692e+00
 2.09483933e+00  3.16600227e+00  2.75972652e+00
 1.03654516e+00  4.23415375e+00  2.82434630e+00
 0.00000000e+00  4.24280453e+00  2.81653833e+00
 2.08520365e+00  4.23471832e+00  2.85976267e+00
 1.03744864e+00  5.29088306e+00  2.80988646e+00
 0.00000000e+00  5.28438330e+00  2.80547142e+00
 2.08204174e+00  5.28613663e+00  2.82094097e+00
 3.09971476e+00  4.29084682e+00  3.02201247e+00
 3.12424469e+00  5.27721882e+00  2.79802060e+00
 1.04096448e+00  6.33476973e+00  2.77229142e+00
 0.00000000e+00  6.33924341e+00  2.76072645e+00
</DataArray>
</Points>
<PointData Tensors="Stress_Components,Plastic_strain_components" Vevtors="Spatial_displacement,Reaction_force" Scalars="Equivalent_plastic_strain,Stress_Mises,Stress_Max_Principal,Stress_Mid_Principal,Stress_Min_Principal,Stress_Pressure,Stress_Tresca,Stress_Third_Invariant,Plastic_strain_Max_Principal,Plastic_strain_Min_Principal">
<DataArray type="Float32" Name="Stress_Components" NumberOfComponents="9" format="ascii">
-3.12061858e+00 -1.09317917e-02 -1.21313957e-02 -1.09317917e-02 3.80245626e-01 8.25234316e-03 -1.21313957e-02 8.25234316e-03 -3.27663422e+01
-9.14223224e+00 2.14976870e-01 -5.70216728e-03 2.14976870e-01 -4.83238631e+00 -2.51685917e-01 -5.70216728e-03 -2.51685917e-01 -4.48696375e+01
-4.32930541e+00 4.11156487e-01 -3.63737404e-01 4.11156487e-01 -1.75496989e+00 -3.15948140e-01 -3.63737404e-01 -3.15948140e-01 -3.64533301e+01
-5.59427881e+00 9.02177729e-02 -3.82123768e-01 9.02177729e-02 -3.24530196e+00 1.71413994e-02 -3.82123768e-01 1.71413994e-02 -3.94735260e+01
-1.06011987e+00 -6.72780210e-03 -8.72883201e-02 -6.72780210e-03 2.14102477e+00 -2.21795417e-01 -8.72883201e-02 -2.21795417e-01 -2.86550226e+01
-6.14493477e+00 1.27122715e-01 3.38271633e-01 1.27122715e-01 -2.34318799e+00 -5.59274353e-01 3.38271633e-01 -5.59274353e-01 -3.89554653e+01
-2.87482779e+00 3.03771771e-01 -1.42524801e-01 3.03771771e-01 -3.29133481e-01 -3.21430844e-01 -1.42524801e-01 -3.21430844e-01 -3.33443573e+01
-4.67278981e+00 9.80892908e-02 -2.75898110e-01 9.80892908e-02 -2.11137187e+00 1.83290575e-01 -2.75898110e-01 1.83290575e-01 -3.72218735e+01
-1.17382478e+01 1.86970808e-01 -1.74751813e-02 1.86970808e-01 -6.73821259e+00 -4.49903756e-01 -1.74751813e-02 -4.49903756e-01 -4.96742764e+01
-1.28487420e+01 9.11241844e-01 -6.28901180e-01 9.11241844e-01 -8.63954484e+00 -4.70990716e-01 -6.28901180e-01 -4.70990716e-01 -5.29734166e+01
-7.64372861e+00 1.44382823e-01 3.96361515e-01 1.44382823e-01 -4.31208497e+00 -6.94746040e-02 3.96361515e-01 -6.94746040e-02 -4.28151236e+01
-7.23174359e+00 2.57356140e-01 -7.64373044e-01 2.57356140e-01 -3.70324504e+00 -1.13330429e+00 -7.64373044e-01 -1.13330429e+00 -4.15635840e+01
-1.46210237e+01 5.52098155e-01 -7.03425035e-02 5.52098155e-01 -9.70817721e+00 4.16998729e-01 -7.03425035e-02 4.16998729e-01 -5.60707359e+01
-2.10752685e+01 5.96146360e-01 -1.28765546e+00 5.96146360e-01 -1.48488913e+01 -1.19820675e+00 -1.28765546e+00 -1.19820675e+00 -6.84322038e+01
-6.77102971e+00 -5.07598281e-01 -6.25289738e-01 -5.07598281e-01 -4.87047368e+00 -5.85318692e-02 -6.25289738e-01 -5.85318692e-02 -4.25571835e+01
-1.26096849e+01 -4.38060392e-01 -3.88411511e-01 -4.38060392e-01 -7.95140761e+00 -9.13479356e-01 -3.88411511e-01 -9.13479356e-01 -5.18831218e+01
-1.91665201e+01 -1.42986792e+00 -1.03893027e-01 -1.42986792e+00 -1.49658346e+01 1.34332300e-01 -1.03893027e-01 1.34332300e-01 -6.67125816e+01
-3.03743846e+01 -1.34953061e+00 -2.48311047e+00 -1.34953061e+00 -1.90595425e+01 -1.78493138e-01 -2.48311047e+00 -1.78493138e-01 -8.22197278e+01
-8.37233067e+00 -1.35059839e+00 -3.00160339e-01 -1.35059839e+00 -7.21469212e+00 -1.12345675e-01 -3.00160339e-01 -1.12345675e-01 -4.68010237e+01
2.86903620e-01 -1.00155455e+00 -5.47534759e-01 -1.00155455e+00 1.59544897e+00 2.87547388e-01 -5.47534759e-01 2.87547388e-01 -2.79076005e+01
-1.94934717e+01 -4.46702972e-01 -2.15084739e-01 -4.46702972e-01 -1.32032137e+01 1.15996969e+00 -2.15084739e-01 1.15996969e+00 -6.49783745e+01
-1.23932106e+01 -3.08553021e+00 -2.09617459e+00 -3.08553021e+00 -6.80897641e+00 4.76973817e-01 -2.09617459e+00 4.76973817e-01 -4.95872498e+01
-1.31095839e+00 -5.07043507e-01 -2.48146102e-01 -5.07043507e-01 -2.66608775e-01 1.20924481e+00 -2.48146102e-01 1.20924481e+00 -3.16381454e+01
3.88334087e+00 -1.76349919e+00 -2.86269343e-01 -1.76349919e+00 4.20564070e+00 2.70061594e-01 -2.86269343e-01 2.70061594e-01 -2.10481765e+01
-4.76334572e+01 -4.67947149e+00 -2.20954910e-01 -4.67947149e+00 -3.50281067e+01 5.15101194e-01 -2.20954910e-01 5.15101194e-01 -1.18067780e+02
-6.43036060e+01 -5.20300615e+00 -3.00406420e+00 -5.20300615e+00 -3.88695107e+01 5.30096745e+00 -3.00406420e+00 5.30096745e+00 -1.36523632e+02
-2.68102834e+01 -5.65424219e-01 -1.82700479e+00 -5.65424219e-01 -1.84934989e+01 2.83698830e+00 -1.82700479e+00 2.83698830e+00 -7.80707941e+01
-2.49863815e+01 -1.76878449e+00 -1.16425178e+00 -1.76878449e+00 -1.83395059e+01 2.89445360e+00 -1.16425178e+00 2.89445360e+00 -7.55682702e+01
-1.58525801e+00 8.50007556e-01 -5.17140478e-01 8.50007556e-01 -3.63003254e+00 -4.03266222e-01 -5.17140478e-01 -4.03266222e-01 -3.55032787e+01
8.72941017e-02 1.94489583e-01 -4.95784029e-01 1.94489583e-01 -1.91838312e+00 5.74819511e-03 -4.95784029e-01 5.74819511e-03 -3.18757164e+01
-1.44143593e+00 5.19805290e-01 3.27771078e-02 5.19805290e-01 -1.71547538e+00 -7.29505947e-01 3.27771078e-02 -7.29505947e-01 -3.33804650e+01
1.64002419e+00 1.84127335e-01 8.16374416e-01 1.84127335e-01 1.11806583e+00 5.25322799e-02 8.16374416e-01 5.25322799e-02 -2.69910854e+01
-6.34831715e+00 2.63151130e+00 -8.64571817e-01 2.63151130e+00 -8.98253751e+00 -1.16730600e+00 -8.64571817e-01 -1.16730600e+00 -4.60012951e+01
-4.57369262e+00 2.03031189e+00 1.78061160e+00 2.03031189e+00 -5.49400940e+00 -3.29558864e-01 1.78061160e+00 -3.29558864e-01 -3.98776534e+01
2.01511750e+01 1.34565730e+00 -1.62184533e+00 1.34565730e+00 1.85309558e+01 -5.23781955e-01 -1.62184533e+00 -5.23781955e-01 1.07288384e+01
5.79995905e+00 1.64851359e+00 3.79141512e+00 1.64851359e+00 6.91430793e+00 -2.90073046e-01 3.79141512e+00 -2.90073046e-01 -1.68308885e+01
3.02465878e+01 -8.22545066e-01 -4.60059981e+00 -8.22545066e-01 2.47158217e+01 -1.88496843e-01 -4.60059981e+00 -1.88496843e-01 2.84316479e+01
-1.50017503e+01 -6.84280111e+00 8.71739455e+00 -6.84280111e+00 -1.13619698e+01 5.30346897e-01 8.71739455e+00 5.30346897e-01 -5.31432638e+01
2.95216849e+01 1.05986606e+00 -3.90344574e+00 1.05986606e+00 2.85896314e+01 2.48352777e-01 -3.90344574e+00 2.48352777e-01 3.04438472e+01
-3.84131082e+00 -5.00784886e+00 9.31061510e+00 -5.00784886e+00 -9.05785767e+00 2.55341575e+00 9.31061510e+00 2.55341575e+00 -3.60559926e+01
1.71986818e+01 -5.03410625e+00 -6.94109035e+00 -5.03410625e+00 5.91016579e+00 1.82577473e+00 -6.94109035e+00 1.82577473e+00 -3.87053299e+00
-4.17154058e+01 -1.19205400e+01 1.21988980e+01 -1.19205400e+01 -3.29626757e+01 5.82954709e+00 1.21988980e+01 5.82954709e+00 -1.00675730e+02
-5.77403903e-02 6.25238806e-01 1.69316337e-01 6.25238806e-01 -9.18663549e+00 -8.25521819e-01 1.69316337e-01 -8.25521819e-01 -3.87096310e+01
7.18982863e+00 2.66422614e-01 2.88204029e-01 2.66422614e-01 2.66086960e+00 1.89531874e-03 2.88204029e-01 1.89531874e-03 -1.89345603e+01
2.78337599e+00 1.01648223e-01 1.00718621e+00 1.01648223e-01 -4.03090823e+00 -6.29838910e-01 1.00718621e+00 -6.29838910e-01 -3.05528504e+01
7.35166383e+00 9.37613701e-02 8.24114963e-01 9.37613701e-02 4.46125650e+00 -3.13656777e-01 8.24114963e-01 -3.13656777e-01 -1.69716587e+01
1.72426341e+01 -1.74385525e-01 -7.74180330e-02 -1.74385525e-01 9.71267027e+00 -1.12183419e+00 -7.74180330e-02 -1.12183419e+00 -1.83969021e-01
1.55379117e+01 -1.61500446e-01 1.05902833e+00 -1.61500446e-01 5.29172260e+00 1.58227281e+00 1.05902833e+00 1.58227281e+00 -6.94311345e+00
3.01343803e+01 -3.91505865e-01 9.84017588e-02 -3.91505865e-01 2.83562436e+01 -2.33078711e+00 9.84017588e-02 -2.33078711e+00 3.20046816e+01
2.90554869e+01 -1.82059942e+00 -3.23658437e-01 -1.82059942e+00 2.62403879e+01 2.87960632e+00 -3.23658437e-01 2.87960632e+00 3.11180528e+01
2.34510336e+01 -2.63706206e+00 -2.47505983e-01 -2.63706206e+00 2.17024769e+01 -2.51890731e+00 -2.47505983e-01 -2.51890731e+00 2.92191378e+01
3.22180208e+01 6.66473389e-01 -1.03517636e+01 6.66473389e-01 3.32452106e+01 3.79896575e+00 -1.03517636e+01 3.79896575e+00 5.21289430e+01
3.35865949e+01 -1.00046021e+00 3.48559860e+00 -1.00046021e+00 3.47152462e+01 -4.11088144e-01 3.48559860e+00 -4.11088144e-01 3.44696821e+01
2.69693448e+01 4.92838772e+00 -9.67895095e+00 4.92838772e+00 3.54102704e+01 -1.12415061e+00 -9.67895095e+00 -1.12415061e+00 4.45662662e+01
1.83671394e+01 3.38419425e+00 -5.36373854e-01 3.38419425e+00 8.24483681e+00 1.46925026e+00 -5.36373854e-01 1.46925026e+00 3.03862855e+01
4.37852001e+01 1.02974286e+01 -5.35573924e+00 1.02974286e+01 3.20421314e+01 -1.62207139e+00 -5.35573924e+00 -1.62207139e+00 6.04753904e+01
2.91497715e+00 -7.99855329e-01 2.03116583e-01 -7.99855329e-01 -8.49434409e+00 -1.19656704e+00 2.03116583e-01 -1.19656704e+00 -3.39150958e+01
2.75324833e+00 -8.21214527e-01 2.62399472e-01 -8.21214527e-01 -5.06151462e+00 -4.83936295e-02 2.62399472e-01 -4.83936295e-02 -3.14407024e+01
8.78345391e+00 -1.16414823e+00 1.34101950e+00 -1.16414823e+00 2.24553454e+00 3.93046122e-02 1.34101950e+00 3.93046122e-02 -1.67787202e+01
5.66394401e+00 -6.50472432e-01 2.54296184e-01 -6.50472432e-01 7.00204283e-01 -1.29881417e-01 2.54296184e-01 -1.29881417e-01 -2.26430322e+01
1.63574165e+01 -2.26428921e+00 -9.53415320e-01 -2.26428921e+00 1.09486190e+01 -2.17348496e+00 -9.53415320e-01 -2.17348496e+00 8.84045601e-01
1.84666610e+01 -1.03435738e+00 -7.96792947e-01 -1.03435738e+00 1.37129185e+01 2.86057980e+00 -7.96792947e-01 2.86057980e+00 7.20353425e+00
1.97081280e+01 -1.11689195e-01 5.43287443e-01 -1.11689195e-01 2.52708757e+01 -2.75012463e+00 5.43287443e-01 -2.75012463e+00 1.99148200e+01
2.83444384e+01 7.12563942e-01 -5.03785471e-01 7.12563942e-01 3.32467469e+01 -2.05920911e+00 -5.03785471e-01 -2.05920911e+00 3.36971102e+01
2.14250819e+01 1.37275785e+00 7.80975101e-01 1.37275785e+00 2.51761818e+01 -2.17882487e+00 7.80975101e-01 -2.17882487e+00 2.58689027e+01
1.40780220e+01 3.19996294e+00 2.99152583e-01 3.19996294e+00 1.07171315e+01 2.25605329e+00 2.99152583e-01 2.25605329e+00 4.06838787e+00
-1.06318976e+01 -7.64645123e+00 1.57455370e-01 -7.64645123e+00 -3.15635266e+01 1.44315800e+00 1.57455370e-01 1.44315800e+00 -1.49616630e+01
1.31200686e+01 2.41863354e+00 -7.70065486e-01 2.41863354e+00 1.88876075e+01 9.05612323e-01 -7.70065486e-01 9.05612323e-01 1.52016354e+01
7.60568142e-01 -5.89496374e+00 1.36334693e+00 -5.89496374e+00 -2.09397135e+01 -1.84678382e+00 1.36334693e+00 -1.84678382e+00 -5.04011822e+00
2.29838514e+00 -2.67921456e+00 -2.55512301e+00 -2.67921456e+00 8.99598996e+00 -7.67489195e-01 -2.55512301e+00 -7.67489195e-01 -3.07613111e+00
4.08089997e+00 -2.19736340e+00 1.11638960e+00 -2.19736340e+00 -5.03611851e+00 -4.16093651e-01 1.11638960e+00 -4.16093651e-01 -2.91487894e+01
1.69404268e+00 -1.53418380e+00 4.59979638e-01 -1.53418380e+00 -6.52472687e+00 -1.54594705e-02 4.59979638e-01 -1.54594705e-02 -3.40057749e+01
1.03145071e+01 -1.35656618e+00 8.25979557e-01 -1.35656618e+00 6.23009819e+00 2.73049884e-01 8.25979557e-01 2.73049884e-01 -1.13516011e+01
4.81819189e+00 -7.47129627e-01 -6.33355230e-05 -7.47129627e-01 -1.46739960e+00 7.86828533e-01 -6.33355230e-05 7.86828533e-01 -2.55275091e+01
1.55904889e+01 -2.23952940e+00 3.92961419e-01 -2.23952940e+00 1.00023142e+01 -2.58505680e+00 3.92961419e-01 -2.58505680e+00 -5.02859592e-01
9.83489931e+00 -2.32395138e+00 -7.23215131e-01 -2.32395138e+00 5.86820565e+00 2.64964215e+00 -7.23215131e-01 2.64964215e+00 -1.12371368e+01
1.52381864e+01 2.21268150e+00 2.80803905e+00 2.21268150e+00 1.39677196e+01 -1.62808232e+00 2.80803905e+00 -1.62808232e+00 1.96863699e+00
1.55421575e+01 -1.89057591e+00 -1.43656911e+00 -1.89057591e+00 1.32390060e+01 3.29364801e+00 -1.43656911e+00 3.29364801e+00 3.54734166e+00
1.37124531e+01 2.79488575e+00 -2.74370614e-01 2.79488575e+00 1.88134053e+01 -1.93142954e+00 -2.74370614e-01 -1.93142954e+00 2.02027236e+01
1.35499082e+01 3.04966906e+00 3.35886857e+00 3.04966906e+00 8.38549423e+00 -9.70528841e-01 3.35886857e+00 -9.70528841e-01 9.60781014e+00
-2.34160841e-01 7.49349892e-01 -3.51614790e-01 7.49349892e-01 2.53919125e+00 1.73431700e+00 -3.51614790e-01 1.73431700e+00 4.44865239e+00
3.38753171e+00 6.09006643e-01 -8.19505566e-01 6.09006643e-01 1.00286382e+00 -6.85950232e-01 -8.19505566e-01 -6.85950232e-01 2.74598587e-01
2.93037808e+00 4.25653383e-01 -1.35560417e+00 4.25653383e-01 -7.92128730e+00 3.56611922e-01 -1.35560417e+00 3.56611922e-01 -1.75586253e+00
9.73579665e-01 -1.14076302e+00 9.99008199e-01 -1.14076302e+00 -5.58429269e+00 -2.34835550e-01 9.99008199e-01 -2.34835550e-01 -2.33267019e-01
-2.24314852e+01 -2.86476646e+00 1.38326776e+00 -2.86476646e+00 -3.35291395e+01 -1.49089509e+00 1.38326776e+00 -1.49089509e+00 -8.90149422e+01
-2.00340214e+01 -1.29286838e+00 1.65371203e+00 -1.29286838e+00 -3.52171249e+01 -3.82605791e-02 1.65371203e+00 -3.82605791e-02 -8.77851257e+01
-1.01059045e+01 -1.58584114e+00 1.54525340e-02 -1.58584114e+00 -1.70306816e+01 -1.04696823e+00 1.54525340e-02 -1.04696823e+00 -5.86170769e+01
-2.07109079e+01 -1.53961390e+00 2.25634813e-01 -1.53961390e+00 -3.14566069e+01 9.52936292e-01 2.25634813e-01 9.52936292e-01 -8.53940620e+01
-3.21466212e+01 -6.88792849e+00 5.98605132e+00 -6.88792849e+00 -4.16557884e+01 -5.81660128e+00 5.98605132e+00 -5.81660128e+00 -1.06491375e+02
-1.72046697e+01 -4.44517598e+00 3.32082748e-01 -4.44517598e+00 -1.75074320e+01 2.18724847e-01 3.32082748e-01 2.18724847e-01 -6.66600304e+01
5.48604965e-01 2.58742094e-01 5.44876754e+00 2.58742094e-01 1.40140219e+01 -2.84897345e+00 5.44876754e+00 -2.84897345e+00 -1.28178062e+01
-3.91017291e+01 -9.56543517e+00 3.04491123e-01 -9.56543517e+00 -3.37050635e+01 1.27462894e+01 3.04491123e-01 1.27462894e+01 -1.03224283e+02
2.59482479e+01 3.33952154e+00 -1.23842166e+00 3.33952154e+00 3.56488018e+01 -5.94788480e+00 -1.23842166e+00 -5.94788480e+00 4.82620523e+01
-1.54129164e+01 -1.01776495e+01 2.13602018e+00 -1.01776495e+01 -1.51600909e+01 8.91884661e+00 2.13602018e+00 8.91884661e+00 -1.84872814e+01
-5.25684796e+00 -9.26237822e-01 1.31707895e+00 -9.26237822e-01 2.23660827e+00 1.79891288e+00 1.31707895e+00 1.79891288e+00 5.36115152e+00
-3.52234936e+00 -6.60319726e-01 6.64072325e-01 -6.60319726e-01 2.82488992e+00 -2.58387168e+00 6.64072325e-01 -2.58387168e+00 3.60139562e+00
-1.91514242e+00 2.49984360e+00 -5.91486216e-01 2.49984360e+00 -2.17628789e+00 5.59982359e-01 -5.91486216e-01 5.59982359e-01 -6.26564085e-01
-4.08343780e+00 3.17522928e-01 -2.02130854e-01 3.17522928e-01 6.88351616e-01 1.40717888e+00 -2.02130854e-01 1.40717888e+00 5.16902525e-01
-1.64277124e+00 3.14388191e-03 -1.96326632e-01 3.14388191e-03 1.16627216e+00 -3.88807833e-01 -1.96326632e-01 -3.88807833e-01 -3.03914428e+01
-2.40544572e-01 8.70455969e-02 4.34626319e-01 8.70455969e-02 1.51299113e+00 -3.96653553e-01 4.34626319e-01 -3.96653553e-01 -2.85560837e+01
2.77833600e+00 -1.78863687e-01 -3.67449955e-02 -1.78863687e-01 4.76848336e+00 2.15992270e-01 -3.67449955e-02 2.15992270e-01 -2.17468411e+01
-2.12526464e+00 6.35401951e-03 -2.44602215e-01 6.35401951e-03 8.58393490e-01 2.05238573e-01 -2.44602215e-01 2.05238573e-01 -3.12059798e+01
5.23187056e+00 -7.83482328e-01 4.61882524e-01 -7.83482328e-01 5.21251851e+00 3.23261250e-01 4.61882524e-01 3.23261250e-01 -1.86851702e+01
3.86776993e+00 -3.73877021e-01 -3.61224573e-01 -3.73877021e-01 4.99167947e+00 -7.84580642e-01 -3.61224573e-01 -7.84580642e-01 -2.02449533e+01
2.94879460e+00 -4.52622566e-02 -3.55859503e-01 -4.52622566e-02 2.68590593e+00 7.33624231e-02 -3.55859503e-01 7.33624231e-02 -2.38999918e+01
6.87832683e+00 -3.10034144e-01 -5.62747728e-01 -3.10034144e-01 6.30221999e+00 -4.21864524e-01 -5.62747728e-01 -4.21864524e-01 -1.57159728e+01
4.17442834e+00 -2.84008149e-01 7.31343850e-02 -2.84008149e-01 2.62965846e+00 -1.82091911e-01 7.31343850e-02 -1.82091911e-01 -2.26220921e+01
5.57393038e+00 -5.39493817e-01 -2.64384656e-01 -5.39493817e-01 5.33368230e+00 7.42706784e-01 -2.64384656e-01 7.42706784e-01 -1.81152850e+01
1.07406583e+01 -4.95523721e-01 3.26721380e-02 -4.95523721e-01 9.55136319e+00 5.54072406e-01 3.26721380e-02 5.54072406e-01 -7.98586130e+00
4.90264827e+00 -4.20636017e-01 -3.04588610e-02 -4.20636017e-01 3.89580470e+00 6.21108838e-01 -3.04588610e-02 6.21108838e-01 -2.04809210e+01
8.37396359e+00 4.16243121e-01 -2.83504345e-01 4.16243121e-01 9.23696089e+00 1.67843270e+00 -2.83504345e-01 1.67843270e+00 -1.07349520e+01
4.25447166e+00 2.61577144e-01 -1.00105465e+00 2.61577144e-01 3.53734100e+00 1.06676729e+00 -1.00105465e+00 1.06676729e+00 -2.13991011e+01
5.89556007e+00 -4.29156939e-01 2.57305125e-01 -4.29156939e-01 7.05716342e+00 -7.71620551e-01 2.57305125e-01 -7.71620551e-01 -1.59082029e+01
-1.32448387e+00 -5.09745039e-01 1.32379737e+00 -5.09745039e-01 9.71495375e-01 3.62433000e-02 1.32379737e+00 3.62433000e-02 -3.01522591e+01
-9.11037803e+00 -1.68392969e-01 -4.69372679e-01 -1.68392969e-01 -5.29315368e+00 -7.50093652e-02 -4.69372679e-01 -7.50093652e-02 -4.86496365e+01
-6.40451808e+01 -9.14282705e+00 1.86098219e+01 -9.14282705e+00 -6.51727760e+01 6.75519204e-01 1.86098219e+01 6.75519204e-01 -1.48633345e+02
-4.44216948e+01 -7.04511009e-01 6.99709989e-01 -7.04511009e-01 -4.00833740e+01 2.50918600e+00 6.99709989e-01 2.50918600e+00 -1.21205889e+02
-4.08282487e+01 -1.50756853e+00 2.59577096e+00 -1.50756853e+00 -3.39170885e+01 5.07098281e+00 2.59577096e+00 5.07098281e+00 -1.09422485e+02
-4.76469460e+01 -4.45470834e+00 2.33264250e+00 -4.45470834e+00 -3.68693905e+01 6.54154593e+00 2.33264250e+00 6.54154593e+00 -1.18598827e+02
1.44506307e+01 -4.41209166e-02 7.61052772e-01 -4.41209166e-02 1.58448588e+01 -9.46112420e-01 7.61052772e-01 -9.46112420e-01 2.59849226e+00
1.16937374e+01 -2.42224590e-01 9.71542940e-01 -2.42224590e-01 1.14823800e+01 8.34111460e-02 9.71542940e-01 8.34111460e-02 -4.83229113e+00
-3.69253053e+01 -2.06944408e+00 5.91953226e+00 -2.06944408e+00 -3.22073067e+01 1.31756959e+01 5.91953226e+00 1.31756959e+01 -8.77237593e+01
6.14950390e+01 6.29176831e+00 -1.49724746e+01 6.29176831e+00 6.08515587e+01 -6.62435666e+00 -1.49724746e+01 -6.62435666e+00 9.22211456e+01
1.54299140e+01 -4.46408544e-01 1.85461423e+00 -4.46408544e-01 1.36109781e+01 5.38150396e-01 1.85461423e+00 5.38150396e-01 2.39587176e+00
1.61020606e+01 8.48985344e-01 1.45400733e-01 8.48985344e-01 1.59161829e+01 4.68934541e-01 1.45400733e-01 4.68934541e-01 4.62318733e+00
3.18797543e+01 -1.56267403e+00 -4.17931523e-01 -1.56267403e+00 3.01990373e+01 -1.08440409e+00 -4.17931523e-01 -1.08440409e+00 3.40253504e+01
2.57638226e+01 -5.78513766e-01 -4.56433487e+00 -5.78513766e-01 2.72202746e+01 -1.72302604e-01 -4.56433487e+00 -1.72302604e-01 2.77827965e+01
1.77380376e+01 7.56466538e-02 1.75880490e-01 7.56466538e-02 1.48452216e+01 3.19442777e-02 1.75880490e-01 3.19442777e-02 5.41832554e+00
1.10621051e+01 -6.89280633e-01 4.79205549e-01 -6.89280633e-01 9.00517678e+00 4.13854139e-01 4.79205549e-01 4.13854139e-01 -8.15684271e+00
5.87364739e+00 -2.81883096e+00 8.99288909e-01 -2.81883096e+00 5.02700931e+00 2.49047366e+00 8.99288909e-01 2.49047366e+00 -1.57464748e+01
-2.23208382e+01 -2.03506768e+00 -1.33742942e-01 -2.03506768e+00 -2.02981518e+01 6.34540218e+00 -1.33742942e-01 6.34540218e+00 -7.84775735e+01
-3.11711001e+00 -9.11265999e-01 3.41278948e-02 -9.11265999e-01 -3.77787316e+00 -7.72045841e-02 3.41278948e-02 -7.72045841e-02 -3.75350266e+01
-5.51038361e+00 -6.37209147e-01 -3.04392040e-01 -6.37209147e-01 -8.82714081e+00 1.54941279e+00 -3.04392040e-01 1.54941279e+00 -4.52851334e+01
-1.29591503e+01 -4.29041378e-01 1.42896926e+00 -4.29041378e-01 -6.33341932e+00 -2.88081390e+00 1.42896926e+00 -2.88081390e+00 -5.02213268e+01
-9.10301170e+01 -4.31637526e+00 -6.65915871e+00 -4.31637526e+00 -8.55020618e+01 4.88498235e+00 -6.65915871e+00 4.88498235e+00 -2.20889153e+02
-2.34679345e-01 -5.95512271e-01 -2.75076635e-01 -5.95512271e-01 3.28068692e-01 2.69832194e-01 -2.75076635e-01 2.69832194e-01 -4.79917273e-01
-4.31236971e-01 -3.95011883e-02 -9.18677747e-02 -3.95011883e-02 -1.22560248e-01 -2.28391808e-01 -9.18677747e-02 -2.28391808e-01 1.67416066e-01
6.94715649e-01 -1.66478224e-01 -1.28706552e-01 -1.66478224e-01 -1.08744688e-01 5.73818829e-01 -1.28706552e-01 5.73818829e-01 -9.72423762e-01
3.66545945e-01 -7.22702086e-01 3.87878120e-02 -7.22702086e-01 -1.82815636e-01 -5.16771704e-01 3.87878120e-02 -5.16771704e-01 -5.70294008e-01
1.46194553e+00 4.02601752e-02 1.42550740e-01 4.02601752e-02 2.23429751e+00 -4.13180655e-03 1.42550740e-01 -4.13180655e-03 -2.60251322e+01
2.20729872e+00 4.68594760e-01 1.85371796e-02 4.68594760e-01 2.18471861e+00 2.68399373e-01 1.85371796e-02 2.68399373e-01 -2.52160238e+01
6.66217190e+00 -1.84376800e-01 1.75991915e-02 -1.84376800e-01 7.25093868e+00 4.51134296e-01 1.75991915e-02 4.51134296e-01 -1.49159284e+01
2.00240028e+00 1.84842158e-01 1.25559379e-01 1.84842158e-01 3.40659350e+00 -1.95408862e-01 1.25559379e-01 -1.95408862e-01 -2.41277335e+01
7.24263763e+00 -7.94256039e-01 1.63713196e-01 -7.94256039e-01 6.53717768e+00 -6.91117318e-02 1.63713196e-01 -6.91117318e-02 -1.50759495e+01
6.03669429e+00 -4.85231076e-01 8.28649846e-01 -4.85231076e-01 6.03650171e+00 8.88455483e-01 8.28649846e-01 8.88455483e-01 -1.67227978e+01
6.49963886e+00 1.25655787e-01 2.86308754e-01 1.25655787e-01 5.56664586e+00 6.38963234e-01 2.86308754e-01 6.38963234e-01 -1.68577819e+01
1.14141307e+01 -4.02144282e-02 5.36814351e-02 -4.02144282e-02 1.00089946e+01 -6.98351562e-02 5.36814351e-02 -6.98351562e-02 -6.83159010e+00
9.07463752e+00 8.71477183e-02 -1.85938681e-01 8.71477183e-02 7.17901385e+00 4.91942644e-01 -1.85938681e-01 4.91942644e-01 -1.22978106e+01
6.01361215e+00 -2.69515160e-03 -4.71649925e-01 -2.69515160e-03 3.93467677e+00 1.30858525e-01 -4.71649925e-01 1.30858525e-01 -1.91482412e+01
1.23425797e+01 -1.97001269e-01 -4.36556572e-02 -1.97001269e-01 1.08102430e+01 4.07364648e-02 -4.36556572e-02 4.07364648e-02 -4.87758106e+00