<VTKFile type="UnstructuredGrid" version="0.1" byte_order="LittleEndian">
<UnstructuredGrid>
<Piece NumberOfPoints="173" NumberOfCells="80">
<Points>
<DataArray type="Float64" NumberOfComponents="3" format="ascii">
 0.00000000e+00  0.00000000e+00  0.00000000e+00
 1.03305924e+00  0.00000000e+00  0.00000000e+00
 1.03558576e+00  1.06339073e+00  0.00000000e+00
 0.00000000e+00  1.06077266e+00  0.00000000e+00
 0.00000000e+00  0.00000000e+00  9.25410330e-01
 1.03270149e+00  0.00000000e+00  9.22354579e-01
 1.03339016e+00  1.05880105e+00  9.26151454e-01
 0.00000000e+00  1.05792201e+00  9.28337097e-01
 2.07027650e+00  0.00000000e+00  0.00000000e+00
 2.07115579e+00  1.06867492e+00  0.00000000e+00
 2.06860900e+00  0.00000000e+00  9.16033030e-01
 2.07058954e+00  1.06188536e+00  9.20648515e-01
 3.10877419e+00  0.00000000e+00  0.00000000e+00
 3.11245966e+00  1.07627428e+00  0.00000000e+00
 3.11364698e+00  0.00000000e+00  9.09925342e-01
 3.10923338e+00  1.06491780e+00  9.11717653e-01
 4.16070843e+00  0.00000000e+00  0.00000000e+00
 4.15084219e+00  1.08215451e+00  0.00000000e+00
 4.16439009e+00  0.00000000e+00  9.02235150e-01
 4.15337467e+00  1.06573784e+00  9.05755877e-01
 5.21291924e+00  0.00000000e+00  0.00000000e+00
 5.19956923e+00  1.08837092e+00  0.00000000e+00
 5.21747208e+00  0.00000000e+00  8.93715739e-01
 5.20786619e+00  1.06853223e+00  8.99924874e-01
 6.27154875e+00  0.00000000e+00  0.00000000e+00
 6.23665571e+00  1.11119401e+00  0.00000000e+00
 6.26791525e+00  0.00000000e+00  8.91344368e-01
 6.25934649e+00  1.08863258e+00  8.88760984e-01
 1.03908145e+00  2.11232305e+00  0.00000000e+00
 0.00000000e+00  2.11038256e+00  0.00000000e+00
 1.03568101e+00  2.10876584e+00  9.36292768e-01
 0.00000000e+00  2.10570455e+00  9.37233627e-01
 2.07792783e+00  2.12278748e+00  0.00000000e+00
 2.07122779e+00  2.11455250e+00  9.35685456e-01
 3.10921049e+00  2.13172150e+00  0.00000000e+00
 3.10414004e+00  2.12152982e+00  9.43087578e-01
 4.13553333e+00  2.14856863e+00  0.00000000e+00
 4.13824177e+00  2.12244463e+00  9.40353632e-01
 5.15328407e+00  2.15148425e+00  0.00000000e+00
 5.16647530e+00  2.12719011e+00  9.43944752e-01
 6.17920685e+00  2.18178535e+00  0.00000000e+00
 6.20149469e+00  2.15634799e+00  9.43799257e-01
 1.04180908e+00  3.14205360e+00  0.00000000e+00
 0.00000000e+00  3.13944578e+00  0.00000000e+00
 1.03743804e+00  3.14299536e+00  9.48823392e-01
 0.00000000e+00  3.14148474e+00  9.49178457e-01
 2.08318472e+00  3.14438081e+00  0.00000000e+00
 2.07516408e+00  3.14554548e+00  9.60814238e-01
 3.10570812e+00  3.15231442e+00  0.00000000e+00
 3.10085487e+00  3.14972687e+00  9.87557769e-01
 4.11070061e+00  3.15902209e+00  0.00000000e+00
 4.10439682e+00  3.14942718e+00  1.00438356e+00
 5.12348747e+00  3.15344977e+00  0.00000000e+00
 5.12455225e+00  3.13923430e+00  1.01126540e+00
 6.12595654e+00  3.18716931e+00  0.00000000e+00
 6.13066435e+00  3.18343854e+00  1.00372231e+00
 1.04355443e+00  4.15789652e+00  0.00000000e+00
 0.00000000e+00  4.16098833e+00  0.00000000e+00
 1.03794563e+00  4.16000652e+00  9.55714822e-01
 0.00000000e+00  4.16393232e+00  9.53736424e-01
 2.08188438e+00  4.15540981e+00  0.00000000e+00
 2.07337475e+00  4.15282774e+00  9.69485760e-01
 3.10092807e+00  4.15258789e+00  0.00000000e+00
 3.09408736e+00  4.15113544e+00  9.93926108e-01
 4.09852409e+00  4.15763235e+00  0.00000000e+00
 4.09812784e+00  4.15760803e+00  1.00001621e+00
 6.09843922e+00  4.16324472e+00  0.00000000e+00
 5.09847832e+00  4.16023540e+00  0.00000000e+00
 6.09855509e+00  4.16326618e+00  9.99736428e-01
 5.09856415e+00  4.16019583e+00  1.00001335e+00
 1.04152107e+00  5.17337322e+00  0.00000000e+00
 0.00000000e+00  5.18066216e+00  0.00000000e+00
 1.03869057e+00  5.17880201e+00  9.53672886e-01
 0.00000000e+00  5.18162060e+00  9.47898209e-01
 2.07985830e+00  5.16108274e+00  0.00000000e+00
 2.06795597e+00  5.16352749e+00  9.65390563e-01
 3.09404993e+00  5.15359497e+00  0.00000000e+00
 3.08896708e+00  5.15583563e+00  9.92148101e-01
 4.09582996e+00  5.15770292e+00  0.00000000e+00
 4.09563684e+00  5.15771866e+00  1.00026667e+00
 5.09569931e+00  5.16034126e+00  0.00000000e+00
 5.09579849e+00  5.16031837e+00  1.00002420e+00
 6.09581566e+00  5.16299391e+00  0.00000000e+00
 6.09583378e+00  5.16292953e+00  1.00000513e+00
 1.04670501e+00  6.20013428e+00  0.00000000e+00
 0.00000000e+00  6.20347309e+00  0.00000000e+00
 1.04180372e+00  6.20025587e+00  9.44215238e-01
 0.00000000e+00  6.20850039e+00  9.38830614e-01
 2.08651805e+00  6.17778301e+00  0.00000000e+00
 2.06985974e+00  6.19200659e+00  9.49913263e-01
 3.09653139e+00  6.16041660e+00  0.00000000e+00
 3.09222054e+00  6.17239332e+00  9.79809403e-01
 4.09417915e+00  6.15828180e+00  0.00000000e+00
 4.09355974e+00  6.15826273e+00  1.00052297e+00
 5.09322166e+00  6.16019678e+00  0.00000000e+00
 5.09333563e+00  6.16028357e+00  9.99968708e-01
 6.09318447e+00  6.16294718e+00  0.00000000e+00
 6.09321308e+00  6.16291523e+00  9.99995887e-01
 0.00000000e+00  0.00000000e+00  1.85726070e+00
 1.03379095e+00  0.00000000e+00  1.85093820e+00
 1.03298593e+00  1.04903269e+00  1.85742879e+00
 0.00000000e+00  1.04985607e+00  1.85872209e+00
 2.07538104e+00  0.00000000e+00  1.84243083e+00
 2.06733394e+00  1.04345107e+00  1.84577310e+00
 3.11745620e+00  0.00000000e+00  1.83054817e+00
 3.11760616e+00  1.04273272e+00  1.83063960e+00
 4.17284775e+00  0.00000000e+00  1.81319475e+00
 4.16835451e+00  1.04347169e+00  1.82479835e+00
 5.22955894e+00  0.00000000e+00  1.80056453e+00
 5.22392416e+00  1.04541945e+00  1.81399679e+00
 6.27469778e+00  0.00000000e+00  1.79393637e+00
 6.28485870e+00  1.05063534e+00  1.80366254e+00
 1.02774537e+00  2.09647942e+00  1.87238395e+00
 0.00000000e+00  2.10175347e+00  1.87751758e+00
 2.06392002e+00  2.09545398e+00  1.86689508e+00
 3.10535979e+00  2.09974980e+00  1.86314225e+00
 4.16016912e+00  2.11203551e+00  1.84619582e+00
 5.21810484e+00  2.11402917e+00  1.85044622e+00
 6.26981640e+00  2.12163901e+00  1.83840370e+00
 1.02395356e+00  3.13957310e+00  1.89620137e+00
 0.00000000e+00  3.14158821e+00  1.90090585e+00
 2.05380106e+00  3.14068651e+00  1.90933299e+00
 3.04876614e+00  3.12511873e+00  2.00741506e+00
 1.02624977e+00  4.17364502e+00  1.91668975e+00
 0.00000000e+00  4.16955423e+00  1.90920496e+00
 2.05694771e+00  4.15988827e+00  1.94082546e+00
 3.07344270e+00  4.13578224e+00  1.97446811e+00
 1.03180993e+00  5.18729973e+00  1.91049933e+00
 0.00000000e+00  5.19270849e+00  1.90465558e+00
 2.05367923e+00  5.17884207e+00  1.92858303e+00
 3.09273553e+00  5.16562843e+00  1.94365895e+00
 1.02718139e+00  6.21945524e+00  1.88631272e+00
 0.00000000e+00  6.21761084e+00  1.88332796e+00
 2.05439687e+00  6.22517633e+00  1.89519334e+00
 3.10063386e+00  6.21679068e+00  1.89685822e+00
 5.09583616e+00  5.16036272e+00  2.00003099e+00
 6.09583521e+00  5.16293716e+00  2.00002718e+00
 6.09325743e+00  6.16294432e+00  1.99998486e+00
 5.09323215e+00  6.16037321e+00  1.99996853e+00
 0.00000000e+00  0.00000000e+00  2.78646326e+00
 1.04035997e+00  0.00000000e+00  2.78453374e+00
 1.04225898e+00  1.04393661e+00  2.79033709e+00
 0.00000000e+00  1.04244173e+00  2.79503345e+00
 2.08928967e+00  0.00000000e+00  2.77208447e+00
 2.07939959e+00  1.03680182e+00  2.78048253e+00
 3.13293052e+00  0.00000000e+00  2.75839019e+00
 3.13377619e+00  1.03222132e+00  2.76149225e+00
 4.18548775e+00  0.00000000e+00  2.74589872e+00
 4.18791628e+00  1.03384101e+00  2.74151540e+00
 5.23996782e+00  0.00000000e+00  2.73032188e+00
 5.24098825e+00  1.03639066e+00  2.73284554e+00
 6.28984022e+00  0.00000000e+00  2.72442389e+00
 6.29020834e+00  1.03608906e+00  2.72704411e+00
 1.02914476e+00  2.08260965e+00  2.80945134e+00
 0.00000000e+00  2.09446549e+00  2.81238031e+00
 2.07770824e+00  2.08332253e+00  2.78881764e+00
 3.12497187e+00  2.08934569e+00  2.75132275e+00
 4.18513012e+00  2.09923649e+00  2.74235559e+00
 5.23897839e+00  2.09232378e+00  2.74317956e+00
 6.28519869e+00  2.09555507e+00  2.73851585e+00
 1.02458620e+00  3.14225435e+00  2.84738255e+00
 0.00000000e+00  3.13938999e+00  2.84334946e+00
 2.06952429e+00  3.12474251e+00  2.81904340e+00
 1.02444565e+00  4.17512512e+00  2.87281084e+00
 0.00000000e+00  4.18169832e+00  2.86823535e+00
 2.06009603e+00  4.17572641e+00  2.90166306e+00
 1.02588272e+00  5.21598148e+00  2.86355615e+00
 0.00000000e+00  5.21062279e+00  2.86055827e+00
 2.05822611e+00  5.21392727e+00  2.86966896e+00
 3.07130027e+00  4.21116638e+00  3.01553822e+00
 3.09218907e+00  5.20621586e+00  2.85231614e+00
 1.02823234e+00  6.24740696e+00  2.83599544e+00
 0.00000000e+00  6.24997616e+00  2.82593322e+00
</DataArray>
</Points>
<PointData Tensors="Stress_Components,Plastic_strain_components" Vevtors="Spatial_displacement,Reaction_force" Scalars="Equivalent_plastic_strain,Stress_Mises,Stress_Max_Principal,Stress_Mid_Principal,Stress_Min_Principal,Stress_Pressure,Stress_Tresca,Stress_Third_Invariant,Plastic_strain_Max_Principal,Plastic_strain_Min_Principal">
<DataArray type="Float32" Name="Stress_Components" NumberOfComponents="9" format="ascii">
-3.35497117e+00 -7.89995212e-03 -1.17323073e-02 -7.89995212e-03 7.93879926e-01 5.45731699e-03 -1.17323073e-02 5.45731699e-03 -3.24891663e+01
-7.74103963e+00 2.26936430e-01 -3.51017166e-03 2.26936430e-01 -2.93387246e+00 -2.30225578e-01 -3.51017166e-03 -2.30225578e-01 -4.12194386e+01
-4.09739369e+00 4.47248094e-01 -4.06220850e-01 4.47248094e-01 -1.03317952e+00 -3.25675584e-01 -4.06220850e-01 -3.25675584e-01 -3.53681731e+01
-3.92189467e+00 1.23176534e-01 -3.73275355e-01 1.23176534e-01 -1.12401104e+00 1.56591418e-02 -3.73275355e-01 1.56591418e-02 -3.53246937e+01
-1.56088293e+00 -4.74815443e-03 -2.21028822e-02 -4.74815443e-03 2.27425000e+00 -2.81473644e-01 -2.21028822e-02 -2.81473644e-01 -2.89741354e+01
-5.31397021e+00 1.19923353e-01 3.98908190e-01 1.19923353e-01 -1.03512710e+00 -5.53088784e-01 3.98908190e-01 -5.53088784e-01 -3.65712335e+01
-2.79838818e+00 3.13487966e-01 -9.94851141e-02 3.13487966e-01 2.13308901e-01 -3.84577591e-01 -9.94851141e-02 -3.84577591e-01 -3.26241515e+01
-3.82507408e+00 1.07040492e-01 -1.80871389e-01 1.07040492e-01 -8.35823715e-01 1.16208637e-01 -1.80871389e-01 1.16208637e-01 -3.48785765e+01
-1.07094085e+01 1.34107700e-01 -1.63749573e-02 1.34107700e-01 -5.21622920e+00 -4.44180906e-01 -1.63749573e-02 -4.44180906e-01 -4.68351450e+01
-1.19741986e+01 1.00713699e+00 -6.82812888e-01 1.00713699e+00 -7.36559165e+00 -4.21377050e-01 -6.82812888e-01 -4.21377050e-01 -5.05839392e+01
-6.33398187e+00 1.49564588e-01 4.02119946e-01 1.49564588e-01 -2.66013318e+00 -1.71757592e-01 4.02119946e-01 -1.71757592e-01 -3.95644224e+01
-7.13883990e+00 2.62480163e-01 -6.43168441e-01 2.62480163e-01 -3.28697979e+00 -1.18272974e+00 -6.43168441e-01 -1.18272974e+00 -4.09792458e+01
-1.47955472e+01 5.85121930e-01 -6.76267156e-02 5.85121930e-01 -8.99728107e+00 4.06742722e-01 -6.76267156e-02 4.06742722e-01 -5.53719883e+01
-1.88230314e+01 6.66872367e-01 -1.39032871e+00 6.66872367e-01 -1.25272257e+01 -1.08788970e+00 -1.39032871e+00 -1.08788970e+00 -6.34556689e+01
-6.61384821e+00 -4.76412803e-01 -4.63056952e-01 -4.76412803e-01 -4.25812262e+00 -1.74774410e-01 -4.63056952e-01 -1.74774410e-01 -4.17120912e+01
-1.15249450e+01 -4.45093466e-01 -1.38591208e-01 -4.45093466e-01 -6.83593573e+00 -8.98062364e-01 -1.38591208e-01 -8.98062364e-01 -4.94719210e+01
-1.83971543e+01 -1.40679449e+00 -9.78404991e-02 -1.40679449e+00 -1.33664259e+01 1.97815835e-01 -9.78404991e-02 1.97815835e-01 -6.40695724e+01
-2.70552745e+01 -1.15719273e+00 -2.51079708e+00 -1.15719273e+00 -1.59178462e+01 -9.90448445e-02 -2.51079708e+00 -9.90448445e-02 -7.52308331e+01
-8.51455784e+00 -1.40279038e+00 -2.03277154e-01 -1.40279038e+00 -6.89819694e+00 -1.26745388e-01 -2.03277154e-01 -1.26745388e-01 -4.66036260e+01
-1.73201513e+00 -1.04846325e+00 -3.86181421e-01 -1.04846325e+00 5.03659248e-03 2.33419165e-01 -3.86181421e-01 2.33419165e-01 -3.17946656e+01
-1.97585021e+01 -6.84718292e-01 -2.19012670e-01 -6.84718292e-01 -1.26256881e+01 1.05440038e+00 -2.19012670e-01 1.05440038e+00 -6.45186806e+01
-1.31412753e+01 -3.14092842e+00 -2.34158950e+00 -3.14092842e+00 -6.61491889e+00 6.84040353e-01 -2.34158950e+00 6.84040353e-01 -5.00045052e+01
-3.39441848e+00 -6.02340672e-01 -2.45580682e-01 -6.02340672e-01 -1.76087797e+00 1.16674707e+00 -2.45580682e-01 1.16674707e+00 -3.54979100e+01
1.80191661e+00 -1.93671350e+00 7.64739458e-02 -1.93671350e+00 2.49025510e+00 3.36771251e-01 7.64739458e-02 3.36771251e-01 -2.51079062e+01
-4.74537506e+01 -4.71367311e+00 -2.05273703e-01 -4.71367311e+00 -3.29206123e+01 5.50444663e-01 -2.05273703e-01 5.50444663e-01 -1.15174400e+02
-5.62668381e+01 -5.04612100e+00 -3.27240002e+00 -5.04612100e+00 -3.27782984e+01 4.92591786e+00 -3.27240002e+00 4.92591786e+00 -1.21410587e+02
-2.58601494e+01 -6.51642188e-01 -1.59903792e+00 -6.51642188e-01 -1.69270666e+01 2.36563542e+00 -1.59903792e+00 2.36563542e+00 -7.53648167e+01
-2.36732745e+01 -1.90504649e+00 -7.14735754e-01 -1.90504649e+00 -1.68579848e+01 2.79756371e+00 -7.14735754e-01 2.79756371e+00 -7.23970754e+01
-9.57990885e-01 8.29000212e-01 -5.23916394e-01 8.29000212e-01 -2.87044668e+00 -3.96101136e-01 -5.23916394e-01 -3.96101136e-01 -3.39915943e+01
8.64442110e-01 1.60942350e-01 -6.23533159e-01 1.60942350e-01 -7.98997879e-01 5.30055165e-03 -6.23533159e-01 5.30055165e-03 -2.98193188e+01
-1.18319203e+00 5.70643455e-01 1.48446911e-01 5.70643455e-01 -1.04448384e+00 -8.00108066e-01 1.48446911e-01 -8.00108066e-01 -3.23581504e+01
2.41085255e+00 2.57215951e-01 8.98748558e-01 2.57215951e-01 2.29982388e+00 -2.12064900e-02 8.98748558e-01 -2.12064900e-02 -2.48759031e+01
-4.52139807e+00 2.31507988e+00 -9.13467433e-01 2.31507988e+00 -6.92701674e+00 -1.22686925e+00 -9.13467433e-01 -1.22686925e+00 -4.18368609e+01
-2.91800100e+00 1.63687714e+00 1.64779206e+00 1.63687714e+00 -3.20832373e+00 -4.41021839e-01 1.64779206e+00 -4.41021839e-01 -3.58978942e+01
1.60587484e+01 1.37179284e+00 -1.40337673e+00 1.37179284e+00 1.46055628e+01 -6.68574698e-01 -1.40337673e+00 -6.68574698e-01 2.24710894e+00
4.11798368e+00 1.01768993e+00 3.96975330e+00 1.01768993e+00 5.34779927e+00 -1.21658216e-01 3.96975330e+00 -1.21658216e-01 -1.97608997e+01
2.43956786e+01 -1.50885259e+00 -4.60430630e+00 -1.50885259e+00 1.83514198e+01 -2.19659080e-01 -4.60430630e+00 -2.19659080e-01 1.54739828e+01
-1.12975082e+01 -6.44108527e+00 8.34579965e+00 -6.44108527e+00 -7.95960299e+00 7.95325783e-01 8.34579965e+00 7.95325783e-01 -4.55030643e+01
2.50682110e+01 1.96858644e-01 -4.33350451e+00 1.96858644e-01 2.16534185e+01 7.67433975e-01 -4.33350451e+00 7.67433975e-01 1.90054026e+01
-3.88817692e+00 -4.84744988e+00 9.41965923e+00 -4.84744988e+00 -8.05316186e+00 3.01217052e+00 9.41965923e+00 3.01217052e+00 -3.50832923e+01
1.30588140e+01 -5.23723638e+00 -6.36444438e+00 -5.23723638e+00 2.68429184e+00 3.01452410e+00 -6.36444438e+00 3.01452410e+00 -1.11359253e+01
-3.40551376e+01 -1.05891506e+01 1.07467888e+01 -1.05891506e+01 -2.63243306e+01 6.12589081e+00 1.07467888e+01 6.12589081e+00 -8.63671977e+01
1.58946043e+00 6.02507167e-01 2.64872245e-01 6.02507167e-01 -6.68893266e+00 -7.47663461e-01 2.64872245e-01 -7.47663461e-01 -3.43738333e+01
5.89017487e+00 2.72370368e-01 3.28944489e-01 2.72370368e-01 1.03617859e+00 -5.74875530e-03 3.28944489e-01 -5.74875530e-03 -2.20634440e+01
3.21837664e+00 1.71101007e-01 1.15742802e+00 1.71101007e-01 -3.03614497e+00 -6.31401030e-01 1.15742802e+00 -6.31401030e-01 -2.90396101e+01
6.96857011e+00 1.25719958e-01 9.13153931e-01 1.25719958e-01 4.21113575e+00 -3.73883849e-01 9.13153931e-01 -3.73883849e-01 -1.76551058e+01
1.88504629e+01 -2.03238202e-01 -7.60515733e-02 -2.03238202e-01 1.29063583e+01 -1.20966351e+00 -7.60515733e-02 -1.20966351e+00 4.74366093e+00
1.30227214e+01 8.84951875e-02 1.24482777e+00 8.84951875e-02 4.03108954e+00 1.39560519e+00 1.24482777e+00 1.39560519e+00 -1.08691025e+01
2.82035363e+01 -2.95939561e-01 1.67339146e-01 -2.95939561e-01 2.42268938e+01 -1.55303818e+00 1.67339146e-01 -1.55303818e+00 2.56352539e+01
3.09292623e+01 -1.18979666e+00 -3.80399138e-01 -1.18979666e+00 2.76108946e+01 2.80129646e+00 -3.80399138e-01 2.80129646e+00 3.33472771e+01
2.56205842e+01 -2.72158209e+00 2.31252670e-01 -2.72158209e+00 2.33073025e+01 -3.31051293e+00 2.31252670e-01 -3.31051293e+00 3.22916349e+01
3.06246236e+01 9.35667674e-01 -9.43604994e+00 9.35667674e-01 3.19415333e+01 4.44288619e+00 -9.43604994e+00 4.44288619e+00 4.86310987e+01
3.61231422e+01 -3.28874784e-01 3.56486158e+00 -3.28874784e-01 3.83742682e+01 -5.39192582e-01 3.56486158e+00 -5.39192582e-01 3.91076705e+01
2.90873127e+01 4.71831477e+00 -8.95770041e+00 4.71831477e+00 3.65046829e+01 -1.47427364e+00 -8.95770041e+00 -1.47427364e+00 4.64062881e+01
1.75317779e+01 4.32097054e+00 -6.17166877e-01 4.32097054e+00 5.69075203e+00 1.32285011e+00 -6.17166877e-01 1.32285011e+00 3.12210127e+01
3.65210657e+01 8.72794580e+00 -3.95392203e+00 8.72794580e+00 2.42423215e+01 -2.34183919e+00 -3.95392203e+00 -2.34183919e+00 4.95773954e+01
3.69006449e+00 -7.41375342e-01 1.70196595e-01 -7.41375342e-01 -6.78189465e+00 -1.13060614e+00 1.70196595e-01 -1.13060614e+00 -3.14942853e+01
2.68487310e+00 -7.49787450e-01 3.96440759e-01 -7.49787450e-01 -5.36620831e+00 -3.88155002e-02 3.96440759e-01 -3.88155002e-02 -3.17894974e+01
7.16705140e+00 -1.08552725e+00 1.61455281e+00 -1.08552725e+00 4.03492838e-01 -3.28495102e-02 1.61455281e+00 -3.28495102e-02 -2.05149870e+01
4.94003528e+00 -7.82645881e-01 4.00739111e-01 -7.82645881e-01 -5.47201663e-01 -2.84145232e-02 4.00739111e-01 -2.84145232e-02 -2.46835880e+01
1.21368601e+01 -2.35796472e+00 -9.00745083e-01 -2.35796472e+00 3.73447013e+00 -2.12687567e+00 -9.00745083e-01 -2.12687567e+00 -1.07242863e+01
1.60358491e+01 -1.28304215e+00 -5.67381337e-01 -1.28304215e+00 1.04979804e+01 2.75862908e+00 -5.67381337e-01 2.75862908e+00 1.07086313e+00
2.01628163e+01 -4.61045057e-01 2.87156373e-01 -4.61045057e-01 2.70392623e+01 -4.27746357e+00 2.87156373e-01 -4.27746357e+00 2.24992757e+01
2.75854344e+01 2.39915527e-01 -1.32085597e-01 2.39915527e-01 2.90089309e+01 -1.88904155e+00 -1.32085597e-01 -1.88904155e+00 2.91264367e+01
1.51151314e+01 1.64599828e+00 3.11355347e-01 1.64599828e+00 2.23339135e+01 -2.63391294e+00 3.11355347e-01 -2.63391294e+00 1.99746100e+01
1.41071459e+01 3.13262602e+00 -4.59978732e-01 3.13262602e+00 7.02770789e+00 3.00759395e+00 -4.59978732e-01 3.00759395e+00 7.30529269e-01
-6.14979398e+00 -6.27390766e+00 2.35675797e-01 -6.27390766e+00 -2.61528912e+01 1.24555168e+00 2.35675797e-01 1.24555168e+00 -1.12426481e+01
8.33625635e+00 5.95387956e-01 -9.41644887e-01 5.95387956e-01 1.46985403e+01 1.24779283e+00 -9.41644887e-01 1.24779283e+00 1.06121571e+01
1.51385784e+00 -5.44095325e+00 1.49258554e+00 -5.44095325e+00 -1.88688040e+01 -1.77954379e+00 1.49258554e+00 -1.77954379e+00 -3.99834108e+00
3.49973512e+00 -2.39756465e+00 -2.40545529e+00 -2.39756465e+00 8.58969146e+00 -8.48143558e-01 -2.40545529e+00 -8.48143558e-01 -2.39654863e+00
3.36077142e+00 -1.97683066e+00 1.18450660e+00 -1.97683066e+00 -5.45366061e+00 -3.55716264e-01 1.18450660e+00 -3.55716264e-01 -3.05618339e+01
1.80501008e+00 -1.46759194e+00 3.61283094e-01 -1.46759194e+00 -6.05343246e+00 -6.59419899e-03 3.61283094e-01 -6.59419899e-03 -3.34847264e+01
8.71305701e+00 -1.40222533e+00 6.00385930e-01 -1.40222533e+00 4.44671583e+00 4.40547567e-01 6.00385930e-01 4.40547567e-01 -1.50461258e+01
4.53731263e+00 -5.72549015e-01 -2.41540410e-02 -5.72549015e-01 -1.72414589e+00 7.70233348e-01 -2.41540410e-02 7.70233348e-01 -2.61103424e+01
1.08359408e+01 -2.54116744e+00 4.54738320e-01 -2.54116744e+00 4.71411210e+00 -2.69196475e+00 4.54738320e-01 -2.69196475e+00 -1.13706536e+01
9.52071798e+00 -2.29950058e+00 -7.06245270e-01 -2.29950058e+00 5.93728976e+00 2.18242883e+00 -7.06245270e-01 2.18242883e+00 -1.16518211e+01
1.59185114e+01 2.03616865e+00 2.32220324e+00 2.03616865e+00 1.72902005e+01 -1.78408262e+00 2.32220324e+00 -1.78408262e+00 6.29108381e+00
1.30954548e+01 -1.76418269e+00 -1.21641922e+00 -1.76418269e+00 1.06910523e+01 3.36310192e+00 -1.21641922e+00 3.36310192e+00 -1.96571589e+00
1.36806401e+01 3.69152781e+00 4.27850001e-02 3.69152781e+00 1.60211718e+01 -1.62353184e+00 4.27850001e-02 -1.62353184e+00 1.70763466e+01
9.52861428e+00 2.40606922e+00 2.82106827e+00 2.40606922e+00 4.52301610e+00 5.47555208e-01 2.82106827e+00 5.47555208e-01 4.19461733e+00
3.17295164e-01 7.99605846e-01 -4.13801521e-01 7.99605846e-01 2.25434721e+00 1.84451327e+00 -4.13801521e-01 1.84451327e+00 3.87466873e+00
3.28298016e+00 5.56703806e-01 -7.47704324e-01 5.56703806e-01 8.69364154e-01 -6.98559344e-01 -7.47704324e-01 -6.98559344e-01 2.81419921e-01
2.93809032e+00 5.35501659e-01 -1.34578794e+00 5.35501659e-01 -8.10537481e+00 3.77008349e-01 -1.34578794e+00 3.77008349e-01 -1.83636147e+00
8.97499849e-01 -8.91225934e-01 8.91635486e-01 -8.91225934e-01 -5.64486607e+00 -1.43257052e-01 8.91635486e-01 -1.43257052e-01 -2.73820142e-01
-1.59121845e+01 -2.36509970e+00 8.06694299e-01 -2.36509970e+00 -2.54598637e+01 -1.23749778e+00 8.06694299e-01 -1.23749778e+00 -7.35092220e+01
-1.35683165e+01 -9.03398633e-01 1.48094404e+00 -9.03398633e-01 -2.65257034e+01 -3.11878771e-02 1.48094404e+00 -3.11878771e-02 -7.17139282e+01
-6.77499127e+00 -1.24060296e+00 1.79583132e-02 -1.24060296e+00 -1.34105688e+01 -9.63008940e-01 1.79583132e-02 -9.63008940e-01 -5.11439614e+01
-1.43490200e+01 -1.52770275e+00 -6.25500083e-02 -1.52770275e+00 -2.30013475e+01 8.69091302e-01 -6.25500083e-02 8.69091302e-01 -6.96230507e+01
-2.41755848e+01 -5.40530169e+00 5.62940359e+00 -5.40530169e+00 -3.22172079e+01 -5.41329575e+00 5.62940359e+00 -5.41329575e+00 -8.79746971e+01
-1.28481782e+01 -3.68894297e+00 7.04717621e-01 -3.68894297e+00 -1.21653275e+01 3.01073169e-01 7.04717621e-01 3.01073169e-01 -5.64730573e+01
8.47275925e+00 1.06566927e+00 4.71581757e+00 1.06566927e+00 1.93890696e+01 -2.82888912e+00 4.71581757e+00 -2.82888912e+00 1.09372711e+00
-3.39078239e+01 -8.07322168e+00 1.27584843e+00 -8.07322168e+00 -2.83426066e+01 1.14334246e+01 1.27584843e+00 1.14334246e+01 -9.26797625e+01
1.06119738e+01 -7.81880796e-01 -5.08723259e-01 -7.81880796e-01 2.27254066e+01 -3.21658647e+00 -5.08723259e-01 -3.21658647e+00 2.30407879e+01
-1.30487399e+01 -9.02995485e+00 1.24705529e+00 -9.02995485e+00 -1.11162472e+01 7.14033651e+00 1.24705529e+00 7.14033651e+00 -1.17681792e+01
-5.81344199e+00 -8.12426805e-01 1.39439377e+00 -8.12426805e-01 2.28278613e+00 1.96114564e+00 1.39439377e+00 1.96114564e+00 5.63678407e+00
-3.91877826e+00 -3.65028858e-01 8.15119584e-01 -3.65028858e-01 2.99920479e+00 -2.85203028e+00 8.15119584e-01 -2.85203028e+00 3.57375443e+00
-1.86122811e+00 2.47688913e+00 -6.63730681e-01 2.47688913e+00 -2.24116373e+00 5.98135054e-01 -6.63730681e-01 5.98135054e-01 -6.28211498e-01
-4.03145957e+00 2.24915452e-01 -2.27763742e-01 2.24915452e-01 5.09864494e-01 1.32952225e+00 -2.27763742e-01 1.32952225e+00 6.27870947e-01
-2.08607578e+00 1.04665407e-03 -8.81668814e-02 1.04665407e-03 1.07046318e+00 -4.84451160e-01 -8.81668814e-02 -4.84451160e-01 -3.09433560e+01
-8.29553798e-01 5.66949458e-02 5.31153992e-01 5.66949458e-02 1.24014801e+00 -4.35859041e-01 5.31153992e-01 -4.35859041e-01 -2.94638071e+01
1.84311073e+00 -3.02974954e-01 8.54243124e-02 -3.02974954e-01 4.18508864e+00 1.48966974e-01 8.54243124e-02 1.48966974e-01 -2.33574864e+01
-2.62169218e+00 -2.15718057e-02 -6.25984669e-02 -2.15718057e-02 8.74121219e-01 1.05167519e-01 -6.25984669e-02 1.05167519e-01 -3.16709235e+01
4.45025159e+00 -8.01152356e-01 5.80897711e-01 -8.01152356e-01 4.57941279e+00 2.94373855e-01 5.80897711e-01 2.94373855e-01 -2.02145309e+01
3.78091037e+00 -4.98449435e-01 -3.01198667e-01 -4.98449435e-01 4.98609790e+00 -8.69947299e-01 -3.01198667e-01 -8.69947299e-01 -2.03233608e+01
3.89808744e+00 -1.56004285e-02 -1.98519754e-01 -1.56004285e-02 3.39430243e+00 1.15176123e-02 -1.98519754e-01 1.15176123e-02 -2.21081707e+01
6.36425665e+00 -3.82687288e-01 -5.55800840e-01 -3.82687288e-01 5.80103797e+00 -4.57659951e-01 -5.55800840e-01 -4.57659951e-01 -1.67955422e+01
4.19324291e+00 -3.02002665e-01 2.09434161e-01 -3.02002665e-01 2.27467662e+00 -3.07490416e-01 2.09434161e-01 -3.07490416e-01 -2.29728482e+01
4.02146232e+00 -5.67418087e-01 -2.08517860e-01 -5.67418087e-01 3.78844696e+00 7.80292594e-01 -2.08517860e-01 7.80292594e-01 -2.14585455e+01
9.20054191e+00 -5.28677627e-01 2.37966161e-01 -5.28677627e-01 7.93659848e+00 4.97301050e-01 2.37966161e-01 4.97301050e-01 -1.14079466e+01
4.26225531e+00 -3.81128039e-01 1.77554037e-01 -3.81128039e-01 3.19403235e+00 6.02141551e-01 1.77554037e-01 6.02141551e-01 -2.19295959e+01
8.66842198e+00 5.13470247e-01 -6.66555013e-02 5.13470247e-01 9.40592194e+00 1.57036918e+00 -6.66555013e-02 1.57036918e+00 -1.03132272e+01
5.52783632e+00 2.91219220e-01 -8.15957297e-01 2.91219220e-01 4.66191530e+00 7.35270657e-01 -8.15957297e-01 7.35270657e-01 -1.88833210e+01
4.74733678e+00 -5.52881915e-01 4.39897455e-01 -5.52881915e-01 6.49284840e+00 -9.01229173e-01 4.39897455e-01 -9.01229173e-01 -1.76898555e+01
-1.31707245e+00 -6.17767043e-01 1.56948733e+00 -6.17767043e-01 1.59512463e+00 -1.03857612e-01 1.56948733e+00 -1.03857612e-01 -2.93500787e+01
-1.05430004e+01 -4.54148789e-01 5.08174373e-01 -4.54148789e-01 -6.69776801e+00 -2.50785538e-01 5.08174373e-01 -2.50785538e-01 -5.06045435e+01
-5.49481714e+01 -7.06958899e+00 1.55942507e+01 -7.06958899e+00 -5.51228418e+01 6.96546650e-01 1.55942507e+01 6.96546650e-01 -1.33593162e+02
-3.86209292e+01 -6.06342973e-01 1.19779734e+00 -6.06342973e-01 -3.43237610e+01 2.54102182e+00 1.19779734e+00 2.54102182e+00 -1.08635952e+02
-3.75249078e+01 -1.07633359e+00 3.07711715e+00 -1.07633359e+00 -3.12162210e+01 5.16114128e+00 3.07711715e+00 5.16114128e+00 -1.02837018e+02
-4.25485172e+01 -3.76946270e+00 2.42348552e+00 -3.76946270e+00 -3.25943279e+01 6.41460246e+00 2.42348552e+00 6.41460246e+00 -1.08571110e+02
1.30894115e+01 1.86755946e-02 1.05151814e+00 1.86755946e-02 1.46889335e+01 -1.00023092e+00 1.05151814e+00 -1.00023092e+00 1.02914572e-02
9.80154681e+00 -2.28339355e-01 1.22575256e+00 -2.28339355e-01 1.02562023e+01 3.83299030e-02 1.22575256e+00 3.83299030e-02 -8.15834260e+00
-3.13125567e+01 -1.77880855e+00 6.15129821e+00 -1.77880855e+00 -2.66283961e+01 1.16207253e+01 6.15129821e+00 1.16207253e+01 -8.01360661e+01
3.24412441e+01 1.23000556e+00 -8.65402555e+00 1.23000556e+00 3.46183443e+01 -4.64132071e-01 -8.65402555e+00 -4.64132071e-01 5.69725914e+01
1.33684356e+01 -2.04265617e-01 1.85576377e+00 -2.04265617e-01 1.15906480e+01 6.37191392e-01 1.85576377e+00 6.37191392e-01 -1.99303174e+00
1.37395244e+01 7.49313504e-01 4.38169785e-01 7.49313504e-01 1.35617998e+01 5.51551986e-01 4.38169785e-01 5.51551986e-01 -4.65661168e-01
2.75221065e+01 -1.87247449e+00 3.30802511e-01 -1.87247449e+00 2.56200218e+01 -4.88613923e-01 3.30802511e-01 -4.88613923e-01 2.58413645e+01
2.26119115e+01 -1.02138066e+00 -5.52757382e+00 -1.02138066e+00 2.36618539e+01 -2.59950082e-01 -5.52757382e+00 -2.59950082e-01 1.86039000e+01
1.46320321e+01 -1.75957542e-01 3.02554481e-01 -1.75957542e-01 1.19121546e+01 1.82310902e-01 3.02554481e-01 1.82310902e-01 -1.00822523e+00
1.07385588e+01 -7.68120170e-01 4.15598691e-01 -7.68120170e-01 8.52037078e+00 5.20304436e-01 4.15598691e-01 5.20304436e-01 -8.96811008e+00
2.34381205e+00 -2.68716180e+00 7.83675984e-01 -2.68716180e+00 1.88486075e+00 2.35675993e+00 7.83675984e-01 2.35675993e+00 -2.32921284e+01
-1.75216930e+01 -1.30930264e+00 -5.94818510e-01 -1.30930264e+00 -1.60988901e+01 5.80385628e+00 -5.94818510e-01 5.80385628e+00 -6.77903662e+01
-1.05864629e+00 -6.91761844e-01 -2.28199586e-01 -6.91761844e-01 -8.53462473e-01 -1.13557048e-01 -2.28199586e-01 -1.13557048e-01 -3.21768765e+01
-3.21935362e+00 -3.97348076e-01 -3.60289097e-01 -3.97348076e-01 -5.53011799e+00 1.49929041e+00 -3.60289097e-01 1.49929041e+00 -3.92629776e+01
-6.83558464e+00 -1.13932341e-02 1.21848148e+00 -1.13932341e-02 -7.40539074e-01 -2.19924816e+00 1.21848148e+00 -2.19924816e+00 -3.76948872e+01
-8.01674156e+01 -2.85583055e+00 -5.05067992e+00 -2.85583055e+00 -7.53003445e+01 4.92573178e+00 -5.05067992e+00 4.92573178e+00 -1.98405312e+02
-2.12323591e-01 -6.13217771e-01 -2.46843506e-01 -6.13217771e-01 2.61357650e-01 2.28691794e-01 -2.46843506e-01 2.28691794e-01 -4.42311212e-01
-4.11189921e-01 -6.74460493e-02 -1.04488611e-01 -6.74460493e-02 -8.43358263e-02 -2.36243326e-01 -1.04488611e-01 -2.36243326e-01 1.02293946e-01
6.72475606e-01 -1.40812024e-01 -8.02756026e-02 -1.40812024e-01 -9.22827944e-02 5.81338372e-01 -8.02756026e-02 5.81338372e-01 -9.73421484e-01
3.99410620e-01 -6.86753422e-01 -1.69828832e-02 -6.86753422e-01 -2.18531720e-01 -5.14439911e-01 -1.69828832e-02 -5.14439911e-01 -5.74242875e-01
5.13805389e-01 3.08478232e-02 3.17807488e-01 3.08478232e-02 1.24499583e+00 -6.79317545e-02 3.17807488e-01 -6.79317545e-02 -2.81266766e+01
1.09401001e+00 4.32047889e-01 1.66124966e-01 4.32047889e-01 1.05513513e+00 3.38123597e-01 1.66124966e-01 3.38123597e-01 -2.76425236e+01
5.01951489e+00 -3.58501051e-01 2.75289965e-01 -3.58501051e-01 5.64249648e+00 4.84950088e-01 2.75289965e-01 4.84950088e-01 -1.84118758e+01
9.19807091e-01 1.99661624e-01 3.64950076e-01 1.99661624e-01 2.41362643e+00 -2.65534386e-01 3.64950076e-01 -2.65534386e-01 -2.63672919e+01
5.88713861e+00 -8.73107940e-01 1.97099092e-01 -8.73107940e-01 4.88112605e+00 2.86449818e-02 1.97099092e-01 2.86449818e-02 -1.83210496e+01
5.91118785e+00 -6.32234036e-01 9.19028265e-01 -6.32234036e-01 5.70639803e+00 9.29938741e-01 9.19028265e-01 9.29938741e-01 -1.71626800e+01
6.93718179e+00 1.23226980e-01 2.30361436e-01 1.23226980e-01 5.55674362e+00 6.08149633e-01 2.30361436e-01 6.08149633e-01 -1.63778889e+01
1.07634673e+01 -1.20686418e-01 7.94871859e-02 -1.20686418e-01 9.00356618e+00 1.23680024e-02 7.94871859e-02 1.23680024e-02 -8.57732427e+00
9.25062957e+00 1.79172758e-01 -9.87665366e-02 1.79172758e-01 6.99125040e+00 3.88629448e-01 -9.87665366e-02 3.88629448e-01 -1.22801399e+01
4.24445695e+00 1.16425812e-01 -5.19916761e-01 1.16425812e-01 1.93694735e+00 6.40339619e-02 -5.19916761e-01 6.40339619e-02 -2.31951092e+01
1.24951185e+01 -1.52741398e-01 3.67912557e-02 -1.52741398e-01 1.05875418e+01 -6.88336901e-02 3.67912557e-02 -6.88336901e-02 -4.92462867e+00