<VTKFile type="UnstructuredGrid" version="0.1" byte_order="LittleEndian">
<UnstructuredGrid>
<Piece NumberOfPoints="173" NumberOfCells="80">
<Points>
<DataArray type="Float64" NumberOfComponents="3" format="ascii">
 0.00000000e+00  0.00000000e+00  0.00000000e+00
 1.01909661e+00  0.00000000e+00  0.00000000e+00
 1.02092111e+00  1.04141831e+00  0.00000000e+00
 0.00000000e+00  1.03935397e+00  0.00000000e+00
 0.00000000e+00  0.00000000e+00  9.51971948e-01
 1.01923025e+00  0.00000000e+00  9.49808955e-01
 1.01959527e+00  1.03803587e+00  9.52422917e-01
 0.00000000e+00  1.03745210e+00  9.54749048e-01
 2.04163647e+00  0.00000000e+00  0.00000000e+00
 2.04227781e+00  1.04571247e+00  0.00000000e+00
 2.04091573e+00  0.00000000e+00  9.44128990e-01
 2.04231191e+00  1.04055929e+00  9.47868347e-01
 3.06565499e+00  0.00000000e+00  0.00000000e+00
 3.06784678e+00  1.05182076e+00  0.00000000e+00
 3.06928515e+00  0.00000000e+00  9.38285649e-01
 3.06650043e+00  1.04338992e+00  9.41127241e-01
 4.09876442e+00  0.00000000e+00  0.00000000e+00
 4.09246588e+00  1.05686688e+00  0.00000000e+00
 4.10178137e+00  0.00000000e+00  9.32195783e-01
 4.09485292e+00  1.04443204e+00  9.35545862e-01
 5.13469887e+00  0.00000000e+00  0.00000000e+00
 5.12422943e+00  1.06152558e+00  0.00000000e+00
 5.13725948e+00  0.00000000e+00  9.24113512e-01
 5.13013744e+00  1.04665601e+00  9.30488646e-01
 6.17525339e+00  0.00000000e+00  0.00000000e+00
 6.14999294e+00  1.07910550e+00  0.00000000e+00
 6.17136431e+00  0.00000000e+00  9.20854092e-01
 6.16532898e+00  1.06056762e+00  9.21230674e-01
 1.02351606e+00  2.07213640e+00  0.00000000e+00
 0.00000000e+00  2.07059979e+00  0.00000000e+00
 1.02112317e+00  2.06993103e+00  9.60274398e-01
 0.00000000e+00  2.06781411e+00  9.61014569e-01
 2.04691124e+00  2.07976389e+00  0.00000000e+00
 2.04273081e+00  2.07419538e+00  9.60343421e-01
 3.06555367e+00  2.08651495e+00  0.00000000e+00
 3.06254911e+00  2.07948160e+00  9.65833366e-01
 4.08162355e+00  2.09735584e+00  0.00000000e+00
 4.08362961e+00  2.08168459e+00  9.63845730e-01
 5.09276104e+00  2.10132408e+00  0.00000000e+00
 5.10159779e+00  2.08565807e+00  9.65788603e-01
 6.10953045e+00  2.12209439e+00  0.00000000e+00
 6.12493944e+00  2.10619259e+00  9.65205252e-01
 1.02544320e+00  3.09008598e+00  0.00000000e+00
 0.00000000e+00  3.08827591e+00  0.00000000e+00
 1.02244103e+00  3.09053850e+00  9.69337165e-01
 0.00000000e+00  3.08956552e+00  9.68571424e-01
 2.04920197e+00  3.09209323e+00  0.00000000e+00
 2.04424024e+00  3.09275031e+00  9.77859855e-01
 3.06237531e+00  3.09817767e+00  0.00000000e+00
 3.05925512e+00  3.09582710e+00  9.92301285e-01
 4.06499338e+00  3.10421944e+00  0.00000000e+00
 4.06190443e+00  3.09662199e+00  1.00209689e+00
 5.07370615e+00  3.10149074e+00  0.00000000e+00
 5.07394648e+00  3.09341741e+00  1.00622845e+00
 6.07574368e+00  3.12426472e+00  0.00000000e+00
 6.07795954e+00  3.12108731e+00  1.00256157e+00
 1.02619338e+00  4.09898901e+00  0.00000000e+00
 0.00000000e+00  4.10059690e+00  0.00000000e+00
 1.02263498e+00  4.10056353e+00  9.73658025e-01
 0.00000000e+00  4.10252762e+00  9.71866131e-01
 2.04794598e+00  4.09821749e+00  0.00000000e+00
 2.04296255e+00  4.09691143e+00  9.82715011e-01
 3.05794573e+00  4.09851313e+00  0.00000000e+00
 3.05380583e+00  4.09722328e+00  9.96344805e-01
 4.05660772e+00  4.10259724e+00  0.00000000e+00
 4.05632162e+00  4.10252714e+00  1.00000393e+00
 6.05673361e+00  4.10929918e+00  0.00000000e+00
 5.05669880e+00  4.10561800e+00  0.00000000e+00
 6.05683470e+00  4.10938263e+00  9.99835849e-01
 5.05676508e+00  4.10564470e+00  1.00005281e+00
 1.02469707e+00  5.10833883e+00  0.00000000e+00
 0.00000000e+00  5.11239147e+00  0.00000000e+00
 1.02246928e+00  5.11122274e+00  9.72217143e-01
 0.00000000e+00  5.11278868e+00  9.68094289e-01
 2.04593349e+00  5.10160255e+00  0.00000000e+00
 2.03884053e+00  5.10307884e+00  9.81001258e-01
 3.05303597e+00  5.09935045e+00  0.00000000e+00
 3.05025530e+00  5.09980297e+00  9.96630847e-01
 4.05348110e+00  5.10256004e+00  0.00000000e+00
 4.05330896e+00  5.10254335e+00  1.00024581e+00
 5.05335236e+00  5.10575628e+00  0.00000000e+00
 5.05344248e+00  5.10574675e+00  1.00001264e+00
 6.05342484e+00  5.10903025e+00  0.00000000e+00
 6.05344772e+00  5.10897541e+00  9.99980569e-01
 1.02750373e+00  6.12409115e+00  0.00000000e+00
 0.00000000e+00  6.12632895e+00  0.00000000e+00
 1.02418602e+00  6.12365913e+00  9.67021108e-01
 0.00000000e+00  6.12893009e+00  9.62902427e-01
 2.04973316e+00  6.11119032e+00  0.00000000e+00
 2.03943658e+00  6.11902857e+00  9.72290993e-01
 3.05273795e+00  6.10187817e+00  0.00000000e+00
 3.05110765e+00  6.10807371e+00  9.91289139e-01
 4.05092096e+00  6.10286474e+00  0.00000000e+00
 4.05052710e+00  6.10287762e+00  1.00035679e+00
 5.05027294e+00  6.10566521e+00  0.00000000e+00
 5.05035400e+00  6.10572338e+00  9.99987245e-01
 6.05023098e+00  6.10897398e+00  0.00000000e+00
 6.05025482e+00  6.10894012e+00  1.00000536e+00
 0.00000000e+00  0.00000000e+00  1.90845120e+00
 1.02085686e+00  0.00000000e+00  1.90364945e+00
 1.01995862e+00  1.03127050e+00  1.90853810e+00
 0.00000000e+00  1.03203607e+00  1.90995967e+00
 2.04667234e+00  0.00000000e+00  1.89696741e+00
 2.04123926e+00  1.02716482e+00  1.89849651e+00
 3.07317162e+00  0.00000000e+00  1.88646686e+00
 3.07342315e+00  1.02626753e+00  1.88692439e+00
 4.10903263e+00  0.00000000e+00  1.87184691e+00
 4.10598564e+00  1.02714515e+00  1.88230252e+00
 5.14516640e+00  0.00000000e+00  1.86086774e+00
 5.14185762e+00  1.02866554e+00  1.87287676e+00
 6.17392635e+00  0.00000000e+00  1.85395432e+00
 6.18114042e+00  1.03084540e+00  1.86407387e+00
 1.01577461e+00  2.06177831e+00  1.91977072e+00
 0.00000000e+00  2.06512904e+00  1.92440820e+00
 2.03797770e+00  2.06076384e+00  1.91603112e+00
 3.06514120e+00  2.06447792e+00  1.91348720e+00
 4.10063648e+00  2.07275081e+00  1.89947510e+00
 5.13923359e+00  2.07418513e+00  1.90141153e+00
 6.17549038e+00  2.07768703e+00  1.89072478e+00
 1.01321888e+00  3.08883452e+00  1.93672240e+00
 0.00000000e+00  3.08981633e+00  1.94070292e+00
 2.03150058e+00  3.08944654e+00  1.94778681e+00
 3.02856445e+00  3.08367205e+00  2.00429106e+00
 1.01517296e+00  4.10847950e+00  1.95069993e+00
 0.00000000e+00  4.10636377e+00  1.94543600e+00
 2.03196621e+00  4.10134506e+00  1.96662188e+00
 3.04063678e+00  4.08744287e+00  1.98689735e+00
 1.01727426e+00  5.11621332e+00  1.94730914e+00
 0.00000000e+00  5.11912632e+00  1.94328463e+00
 2.03012633e+00  5.11160707e+00  1.96026003e+00
 3.05348754e+00  5.10366869e+00  1.96791875e+00
 1.01379812e+00  6.13490629e+00  1.93223524e+00
 0.00000000e+00  6.13266659e+00  1.93190861e+00
 2.02998495e+00  6.13909245e+00  1.93991113e+00
 3.05801797e+00  6.13540316e+00  1.94045937e+00
 5.05347633e+00  5.10576344e+00  2.00001669e+00
 6.05347919e+00  5.10893488e+00  1.99999881e+00
 6.05029631e+00  6.10894394e+00  1.99999535e+00
 5.05027628e+00  6.10577059e+00  1.99999344e+00
 0.00000000e+00  0.00000000e+00  2.86196113e+00
 1.02601874e+00  0.00000000e+00  2.86033058e+00
 1.02669454e+00  1.02791762e+00  2.86547971e+00
 0.00000000e+00  1.02721167e+00  2.86924791e+00
 2.05732036e+00  0.00000000e+00  2.85059786e+00
 2.05055189e+00  1.02239323e+00  2.85790873e+00
 3.08530617e+00  0.00000000e+00  2.84018350e+00
 3.08580470e+00  1.01843393e+00  2.84282684e+00
 4.11910963e+00  0.00000000e+00  2.83045602e+00
 4.12050247e+00  1.01962304e+00  2.82677436e+00
 5.15263414e+00  0.00000000e+00  2.81758809e+00
 5.15401506e+00  1.02155983e+00  2.81993580e+00
 6.18224764e+00  0.00000000e+00  2.81212974e+00
 6.18393183e+00  1.02020395e+00  2.81502581e+00
 1.01763296e+00  2.05187511e+00  2.88054228e+00
 0.00000000e+00  2.05992723e+00  2.88274884e+00
 2.04781079e+00  2.05131984e+00  2.86282063e+00
 3.07931209e+00  2.05616665e+00  2.83426237e+00
 4.12008047e+00  2.06297088e+00  2.82872152e+00
 5.15563679e+00  2.05693316e+00  2.82771897e+00
 6.18583632e+00  2.05536890e+00  2.82440901e+00
 1.01325679e+00  3.08998299e+00  2.90887260e+00
 0.00000000e+00  3.08803678e+00  2.90443039e+00
 2.04254675e+00  3.07914329e+00  2.88583517e+00
 1.01257598e+00  4.10972548e+00  2.92485428e+00
 0.00000000e+00  4.11407757e+00  2.92312837e+00
 2.03343725e+00  4.10994720e+00  2.94568634e+00
 1.01398838e+00  5.13322973e+00  2.92060137e+00
 0.00000000e+00  5.12924480e+00  2.91962838e+00
 2.03312206e+00  5.13341045e+00  2.92262292e+00
 3.03992295e+00  4.12658739e+00  3.00948477e+00
 3.05665207e+00  5.12714243e+00  2.91273355e+00
 1.01493001e+00  6.15110207e+00  2.90524578e+00
 0.00000000e+00  6.15204287e+00  2.89762950e+00
</DataArray>
</Points>
<PointData Tensors="Stress_Components,Plastic_strain_components" Vevtors="Spatial_displacement,Reaction_force" Scalars="Equivalent_plastic_strain,Stress_Mises,Stress_Max_Principal,Stress_Mid_Principal,Stress_Min_Principal,Stress_Pressure,Stress_Tresca,Stress_Third_Invariant,Plastic_strain_Max_Principal,Plastic_strain_Min_Principal">
<DataArray type="Float32" Name="Stress_Components" NumberOfComponents="9" format="ascii">
-3.64806008e+00 -2.81043258e-03 -7.68666994e-03 -2.81043258e-03 1.57910824e+00 5.50054014e-04 -7.68666994e-03 5.50054014e-04 -3.17838688e+01
-6.11904708e+00 2.66834632e-01 -1.77473424e-03 2.66834632e-01 -4.80749130e-01 -1.46671757e-01 -1.77473424e-03 -1.46671757e-01 -3.66508446e+01
-3.82471275e+00 6.15077958e-01 -4.85121198e-01 6.15077958e-01 3.85743380e-02 -3.24298322e-01 -4.85121198e-01 -3.24298322e-01 -3.37970786e+01
-2.28535938e+00 2.20482513e-01 -3.27351943e-01 2.20482513e-01 1.29214954e+00 1.05982898e-02 -3.27351943e-01 1.05982898e-02 -3.08431644e+01
-2.15413198e+00 -2.07007327e-03 1.84013337e-01 -2.07007327e-03 2.71847504e+00 -3.48924518e-01 1.84013337e-01 -3.48924518e-01 -2.89703712e+01
-4.42001665e+00 9.98994969e-02 4.53901678e-01 9.98994969e-02 6.27494693e-01 -5.20908900e-01 4.53901678e-01 -5.20908900e-01 -3.36755414e+01
-2.57093190e+00 3.59124744e-01 -4.42969798e-02 3.59124744e-01 1.15890724e+00 -5.41132215e-01 -4.42969798e-02 -5.41132215e-01 -3.12523614e+01
-3.09730089e+00 1.12274541e-01 -2.52693649e-02 1.12274541e-01 6.79017216e-01 -9.56131751e-02 -2.52693649e-02 -9.56131751e-02 -3.23534284e+01
-9.54485345e+00 3.62983460e-02 -1.35345343e-02 3.62983460e-02 -3.31911087e+00 -4.18606535e-01 -1.35345343e-02 -4.18606535e-01 -4.33897858e+01
-9.88412762e+00 1.18175202e+00 -7.24858075e-01 1.18175202e+00 -4.69388628e+00 -2.16433111e-01 -7.24858075e-01 -2.16433111e-01 -4.53174009e+01
-4.73300290e+00 2.04738997e-01 4.16406833e-01 2.04738997e-01 -5.19945979e-01 -3.25069401e-01 4.16406833e-01 -3.25069401e-01 -3.54275918e+01
-6.60726145e+00 4.01266536e-01 -4.56057151e-01 4.01266536e-01 -2.39301929e+00 -1.23252640e+00 -4.56057151e-01 -1.23252640e+00 -3.93759272e+01
-1.40964408e+01 6.41977757e-01 -5.76453935e-02 6.41977757e-01 -7.37562972e+00 4.79010925e-01 -5.76453935e-02 4.79010925e-01 -5.26971416e+01
-1.54421519e+01 7.26898104e-01 -1.44040279e+00 7.26898104e-01 -9.15757632e+00 -9.37009111e-01 -1.44040279e+00 -9.37009111e-01 -5.61290112e+01
-5.81306708e+00 -4.85053912e-01 -2.07756996e-01 -4.85053912e-01 -2.88651786e+00 -3.97411420e-01 -2.07756996e-01 -3.97411420e-01 -3.93380921e+01
-1.02714297e+01 -4.36477067e-01 1.85072731e-01 -4.36477067e-01 -5.46706921e+00 -8.38135738e-01 1.85072731e-01 -8.38135738e-01 -4.65433599e+01
-1.62140927e+01 -1.19486263e+00 -5.40215354e-02 -1.19486263e+00 -1.01592907e+01 2.53423758e-01 -5.40215354e-02 2.53423758e-01 -5.81167507e+01
-2.21735268e+01 -1.19228318e+00 -2.51973902e+00 -1.19228318e+00 -1.21810387e+01 -7.58006237e-03 -2.51973902e+00 -7.58006237e-03 -6.60566499e+01
-8.19170332e+00 -1.34012020e+00 2.53133334e-01 -1.34012020e+00 -5.77422822e+00 -2.36473072e-01 2.53133334e-01 -2.36473072e-01 -4.50222874e+01
-3.43862884e+00 -1.21571390e+00 3.87042798e-02 -1.21571390e+00 -1.24817908e+00 2.61387076e-01 3.87042798e-02 2.61387076e-01 -3.49290974e+01
-1.84481043e+01 -1.03567000e+00 -1.33259010e-01 -1.03567000e+00 -1.06979699e+01 8.92250687e-01 -1.33259010e-01 8.92250687e-01 -6.08786716e+01
-1.44509780e+01 -3.23702508e+00 -2.59954678e+00 -3.23702508e+00 -7.01685953e+00 9.75009009e-01 -2.59954678e+00 9.75009009e-01 -5.16803017e+01
-4.80788541e+00 -7.91973425e-01 3.79906300e-01 -7.91973425e-01 -2.35064614e+00 9.17551022e-01 3.79906300e-01 9.17551022e-01 -3.76397262e+01
-1.92410618e+00 -2.18249882e+00 5.08687668e-01 -2.18249882e+00 -6.29314527e-01 4.65194589e-01 5.08687668e-01 4.65194589e-01 -3.24318775e+01
-4.30848274e+01 -4.64824390e+00 -1.41538322e-01 -4.64824390e+00 -2.74536533e+01 4.19552177e-01 -1.41538322e-01 4.19552177e-01 -1.04129875e+02
-4.63454247e+01 -4.29739356e+00 -3.70163023e+00 -4.29739356e+00 -2.58308430e+01 4.55818737e+00 -3.70163023e+00 4.55818737e+00 -1.03763432e+02
-2.21304202e+01 -7.46397644e-01 -8.31231087e-01 -7.46397644e-01 -1.30938184e+01 1.58911005e+00 -8.31231087e-01 1.58911005e+00 -6.73042774e+01
-2.14253247e+01 -2.21632800e+00 1.88023120e-01 -2.21632800e+00 -1.45157977e+01 2.23083115e+00 1.88023120e-01 2.23083115e+00 -6.73602666e+01
-4.37201262e-02 1.05159483e+00 -4.75848604e-01 1.05159483e+00 -1.51520491e+00 -4.43741411e-01 -4.75848604e-01 -4.43741411e-01 -3.15066577e+01
1.31821346e+00 1.29221004e-01 -7.36567497e-01 1.29221004e-01 1.40050411e-01 3.54088098e-03 -7.36567497e-01 3.54088098e-03 -2.82978401e+01
-8.73263977e-01 7.39108581e-01 3.92511606e-01 7.39108581e-01 -1.75419658e-01 -9.13048519e-01 3.92511606e-01 -9.13048519e-01 -3.10287168e+01
2.76035005e+00 3.61869652e-01 9.37089495e-01 3.61869652e-01 3.28871644e+00 -1.24546902e-01 9.37089495e-01 -1.24546902e-01 -2.34195115e+01
-7.60782242e-01 2.18612498e+00 -1.24017949e+00 2.18612498e+00 -3.04140711e+00 -1.24163944e+00 -1.24017949e+00 -1.24163944e+00 -3.34614513e+01
-1.71502765e+00 1.28373900e+00 1.62184075e+00 1.28373900e+00 -1.17935485e+00 -4.98102099e-01 1.62184075e+00 -4.98102099e-01 -3.26308550e+01
1.24917139e+01 1.10823666e+00 -1.14196070e+00 1.10823666e+00 1.11913781e+01 -6.70230459e-01 -1.14196070e+00 -6.70230459e-01 -5.02689362e+00
4.16171483e+00 6.30827993e-01 3.83919028e+00 6.30827993e-01 5.10218699e+00 5.66572547e-02 3.83919028e+00 5.66572547e-02 -1.95715519e+01
1.60752118e+01 -2.26416372e+00 -3.85197371e+00 -2.26416372e+00 1.22061753e+01 -6.02256209e-02 -3.85197371e+00 -6.02256209e-02 6.38257027e-01
-4.99693652e+00 -4.92383524e+00 6.54003879e+00 -4.92383524e+00 -2.72115827e+00 9.93697764e-01 6.54003879e+00 9.93697764e-01 -3.46815850e+01
2.12812992e+01 -6.91339787e-01 -3.76857162e+00 -6.91339787e-01 1.47497296e+01 1.27249022e+00 -3.76857162e+00 1.27249022e+00 9.11878586e+00
-7.71628494e-01 -3.98420472e+00 7.98737887e+00 -3.98420472e+00 -3.13899004e+00 3.33972393e+00 7.98737887e+00 3.33972393e+00 -2.81357524e+01
1.05497894e+01 -4.82866842e+00 -4.76609248e+00 -4.82866842e+00 1.64148521e+00 3.21330011e+00 -4.76609248e+00 3.21330011e+00 -1.41084251e+01
-1.79690374e+01 -7.83889771e+00 7.37101833e+00 -7.83889771e+00 -1.50652606e+01 6.45897857e+00 7.37101833e+00 6.45897857e+00 -5.98160248e+01
3.55019152e+00 6.44038141e-01 2.85895489e-01 6.44038141e-01 -3.90774393e+00 -7.06851184e-01 2.85895489e-01 -7.06851184e-01 -2.93745145e+01
4.08964753e+00 3.66259664e-01 4.27452579e-01 3.66259664e-01 -1.38792324e+00 -1.35609973e-02 4.27452579e-01 -1.35609973e-02 -2.65518880e+01
3.28524530e+00 3.74632530e-01 1.31618252e+00 3.74632530e-01 -2.14683273e+00 -5.31810222e-01 1.31618252e+00 -5.31810222e-01 -2.80677398e+01
6.36997499e+00 1.56248095e-01 1.13429148e+00 1.56248095e-01 3.61398080e+00 -2.84058971e-01 1.13429148e+00 -2.84058971e-01 -1.89232770e+01
1.44991534e+01 5.28970855e-01 2.48979475e-01 5.28970855e-01 9.63470844e+00 -1.53049390e+00 2.48979475e-01 -1.53049390e+00 -3.39916706e+00
1.22163034e+01 4.80130389e-01 1.28322051e+00 4.80130389e-01 4.04454297e+00 8.71500416e-01 1.28322051e+00 8.71500416e-01 -1.15035031e+01
2.85446222e+01 3.50502506e-01 -4.28947061e-01 3.50502506e-01 2.35152261e+01 -7.71728657e-01 -4.28947061e-01 -7.71728657e-01 2.48331327e+01
2.94553070e+01 -8.67484922e-01 2.71768590e-01 -8.67484922e-01 2.80100657e+01 2.17182505e+00 2.71768590e-01 2.17182505e+00 3.09365188e+01
3.02795258e+01 -4.68618790e-01 -2.57592632e+00 -4.68618790e-01 2.55597669e+01 -2.58958730e+00 -2.57592632e+00 -2.58958730e+00 3.73246199e+01
1.65647443e+01 -2.54765260e+00 -4.42947514e+00 -2.54765260e+00 2.16844031e+01 4.00295293e+00 -4.42947514e+00 4.00295293e+00 2.57641767e+01
3.25083860e+01 1.81834367e+00 4.81546481e-01 1.81834367e+00 3.68005511e+01 -4.64156250e-01 4.81546481e-01 -4.64156250e-01 4.12882868e+01
2.37710562e+01 2.90039674e+00 -6.13963779e+00 2.90039674e+00 2.92109617e+01 -1.40318139e+00 -6.13963779e+00 -1.40318139e+00 3.60208497e+01
2.61106749e+01 5.31581974e+00 -2.74340892e+00 5.31581974e+00 1.04554014e+01 4.46313024e-01 -2.74340892e+00 4.46313024e-01 3.76357685e+01
9.68393981e+00 1.17001545e+00 3.32357955e+00 1.17001545e+00 1.00857210e+00 -2.04225004e+00 3.32357955e+00 -2.04225004e+00 1.08736591e+01
4.51370916e+00 -6.91794030e-01 2.52218276e-01 -6.91794030e-01 -5.34679693e+00 -1.12477985e+00 2.52218276e-01 -1.12477985e+00 -2.91891637e+01
3.07059586e+00 -6.23818308e-01 5.65220803e-01 -6.23818308e-01 -5.21816611e+00 -2.60515390e-02 5.65220803e-01 -2.60515390e-02 -3.11482220e+01
6.20033827e+00 -1.03983001e+00 1.80890244e+00 -1.03983001e+00 -7.28335738e-01 -1.17838377e-01 1.80890244e+00 -1.17838377e-01 -2.27716218e+01
4.31251872e+00 -8.41103122e-01 5.84812550e-01 -8.41103122e-01 -1.97513051e+00 1.48227695e-01 5.84812550e-01 1.48227695e-01 -2.67493377e+01
1.03431784e+01 -1.36389457e+00 -6.37568623e-01 -1.36389457e+00 2.33046663e+00 -2.03138877e+00 -6.37568623e-01 -2.03138877e+00 -1.48379636e+01
1.28682029e+01 -1.37881177e+00 1.53649467e-01 -1.37881177e+00 6.37918863e+00 2.26405565e+00 1.53649467e-01 2.26405565e+00 -7.13657518e+00
1.64238418e+01 -1.68629807e+00 -9.08157660e-01 -1.68629807e+00 1.77572998e+01 -5.07804026e+00 -9.08157660e-01 -5.07804026e+00 1.06558634e+01
2.11297627e+01 -4.03949648e-01 -2.28980976e-01 -4.03949648e-01 1.77338030e+01 7.74150590e-02 -2.28980976e-01 7.74150590e-02 1.21318454e+01
1.14939140e+01 2.39189307e-01 -1.04812780e+00 2.39189307e-01 1.76080159e+01 -3.47687910e+00 -1.04812780e+00 -3.47687910e+00 1.35201712e+01
1.38393278e+01 2.51120828e+00 -1.88737591e-01 2.51120828e+00 4.58989040e+00 4.85388072e+00 -1.88737591e-01 4.85388072e+00 -8.77464493e-01
-1.13555622e+00 -4.56314611e+00 8.44128966e-01 -4.56314611e+00 -2.15396450e+01 1.09549567e+00 8.44128966e-01 1.09549567e+00 -5.56339943e+00
6.02394748e+00 -2.23295609e+00 1.45072639e-01 -2.23295609e+00 1.11583152e+01 9.63302061e-01 1.45072639e-01 9.63302061e-01 5.86612773e+00
4.32332832e+00 -4.53713965e+00 1.29774761e+00 -4.53713965e+00 -1.56001635e+01 -1.22230159e+00 1.29774761e+00 -1.22230159e+00 -7.14675933e-01
4.84490220e+00 -1.97561518e+00 -1.89590584e+00 -1.97561518e+00 6.86416141e+00 -2.46234804e-01 -1.89590584e+00 -2.46234804e-01 -1.21247605e+00
2.92248738e+00 -1.84174346e+00 1.21298052e+00 -1.84174346e+00 -4.91436911e+00 -4.70711954e-01 1.21298052e+00 -4.70711954e-01 -3.07599075e+01
1.55986416e+00 -1.48493242e+00 1.77820072e-01 -1.48493242e+00 -6.07058066e+00 -9.80230095e-03 1.77820072e-01 -9.80230095e-03 -3.38553724e+01
6.59219633e+00 -1.45539059e+00 3.45170641e-01 -1.45539059e+00 2.03582574e+00 6.46312020e-01 3.45170641e-01 6.46312020e-01 -1.99800770e+01
3.81551998e+00 -4.26714666e-01 -1.53469104e-01 -4.26714666e-01 -2.33159065e+00 7.42749974e-01 -1.53469104e-01 7.42749974e-01 -2.75824723e+01
7.30565631e+00 -1.93092389e+00 4.40102920e-01 -1.93092389e+00 1.22350329e+00 -2.88992716e+00 4.40102920e-01 -2.88992716e+00 -1.93946135e+01
9.92616653e+00 -2.37735306e+00 -5.37404903e-01 -2.37735306e+00 6.96575322e+00 1.71741868e+00 -5.37404903e-01 1.71741868e+00 -1.02191324e+01
1.65450921e+01 7.98503682e-01 1.65191033e+00 7.98503682e-01 1.92989644e+01 -3.48687068e+00 1.65191033e+00 -3.48687068e+00 1.10124688e+01
6.48575139e+00 -1.35599819e+00 -1.43588075e+00 -1.35599819e+00 4.83397055e+00 3.81922235e+00 -1.43588075e+00 3.81922235e+00 -1.53822861e+01
7.96969062e+00 5.01703934e+00 2.59180568e-01 5.01703934e+00 1.06482227e+01 -1.50451734e+00 2.59180568e-01 -1.50451734e+00 6.45152432e+00
7.84386647e+00 2.78077327e+00 1.63824051e+00 2.78077327e+00 1.54313958e+00 1.46805191e+00 1.63824051e+00 1.46805191e+00 1.99976975e+00
2.52299450e-01 5.88403732e-01 -1.98616296e-01 5.88403732e-01 2.57129811e+00 1.83245873e+00 -1.98616296e-01 1.83245873e+00 1.88534015e+00
2.35094517e+00 7.05048513e-01 -7.65543708e-01 7.05048513e-01 9.65795916e-01 -6.03469189e-01 -7.65543708e-01 -6.03469189e-01 8.87889981e-02
2.63853592e+00 4.82156903e-01 -1.14421183e+00 4.82156903e-01 -7.14682508e+00 4.76353958e-01 -1.14421183e+00 4.76353958e-01 -1.40744057e+00
1.08498849e+00 -5.99184414e-01 3.05878858e-01 -5.99184414e-01 -5.76943648e+00 -1.34973753e-01 3.05878858e-01 -1.34973753e-01 3.62112264e-01
-8.22826746e+00 -2.16753271e+00 8.24312000e-02 -2.16753271e+00 -1.58615949e+01 -8.76494437e-01 8.24312000e-02 -8.76494437e-01 -5.50849552e+01
-6.93726921e+00 -4.93027121e-01 1.26980448e+00 -4.93027121e-01 -1.73592453e+01 -1.78080518e-02 1.26980448e+00 -1.78080518e-02 -5.50115852e+01
-3.37280971e+00 -9.10203516e-01 1.05314493e-01 -9.10203516e-01 -9.23634976e+00 -1.07607525e+00 1.05314493e-01 -1.07607525e+00 -4.30040860e+01
-6.93858910e+00 -1.60281116e+00 -2.60286823e-01 -1.60281116e+00 -1.32758026e+01 8.02229553e-01 -2.60286823e-01 8.02229553e-01 -5.13489876e+01
-1.24892610e+01 -3.68968141e+00 4.83875799e+00 -3.68968141e+00 -1.63818207e+01 -5.30231476e+00 4.83875799e+00 -5.30231476e+00 -5.85895538e+01
-8.64113116e+00 -3.28603256e+00 6.22118503e-01 -3.28603256e+00 -6.83471975e+00 8.29367638e-01 6.22118503e-01 8.29367638e-01 -4.61730106e+01
6.34670448e+00 1.59431458e-01 5.65735689e+00 1.59431458e-01 1.17009838e+01 -2.43651205e+00 5.65735689e+00 -2.43651205e+00 -9.82709503e+00
-2.07900588e+01 -6.34829267e+00 2.93308008e+00 -6.34829267e+00 -1.52625276e+01 1.07123454e+01 2.93308008e+00 1.07123454e+01 -6.40553869e+01
-4.12786865e+00 -4.29647255e+00 1.53571639e+00 -4.29647255e+00 1.35758235e+01 -3.11802268e-01 1.53571639e+00 -3.11802268e-01 5.98876500e+00
-1.20533099e+01 -7.54768009e+00 7.54509628e-01 -7.54768009e+00 -6.33935332e+00 4.90365171e+00 7.54509628e-01 4.90365171e+00 -5.30752206e+00
-8.67917776e+00 1.13382339e-02 1.21871763e+00 1.13382339e-02 3.48909533e+00 1.25706401e+00 1.21871763e+00 1.25706401e+00 6.66893035e+00
-3.25075547e+00 1.48300807e-01 6.77607884e-01 1.48300807e-01 1.66568912e+00 -2.23978591e+00 6.77607884e-01 -2.23978591e+00 2.18804942e+00
-2.08207369e+00 2.39936376e+00 -7.07084179e-01 2.39936376e+00 -2.65254068e+00 4.98717755e-01 -7.07084179e-01 4.98717755e-01 -3.18023801e-01
-3.19327688e+00 4.97984320e-01 2.07056277e-01 4.97984320e-01 -5.24211839e-01 1.06220600e+00 2.07056277e-01 1.06220600e+00 6.23083174e-01
-2.42748797e+00 -1.71998428e-03 9.15147201e-03 -1.71998428e-03 1.16851258e+00 -6.79050118e-01 9.15147201e-03 -6.79050118e-01 -3.11549120e+01
-1.37628353e+00 -2.34756477e-02 6.51042223e-01 -2.34756477e-02 1.08106953e+00 -4.98428531e-01 6.51042223e-01 -4.98428531e-01 -3.01930008e+01
6.85469389e-01 -5.46730229e-01 3.08545447e-01 -5.46730229e-01 3.61373277e+00 -5.34928497e-03 3.08545447e-01 -5.34928497e-03 -2.51429368e+01
-2.87086239e+00 -6.96975878e-02 2.44782433e-01 -6.96975878e-02 1.36080930e+00 -6.06462231e-02 2.44782433e-01 -6.06462231e-02 -3.12954986e+01
3.31630594e+00 -8.56260560e-01 5.99214278e-01 -8.56260560e-01 3.56647581e+00 1.95829825e-01 5.99214278e-01 1.95829825e-01 -2.25534811e+01
3.04361793e+00 -7.43947759e-01 -2.27604159e-01 -7.43947759e-01 4.31521603e+00 -1.06743134e+00 -2.27604159e-01 -1.06743134e+00 -2.17855268e+01
4.21959180e+00 1.45105728e-02 5.81056100e-02 1.45105728e-02 3.29777725e+00 -1.75178047e-01 5.81056100e-02 -1.75178047e-01 -2.18584765e+01
5.09911374e+00 -5.09104711e-01 -4.67107937e-01 -5.09104711e-01 4.56741241e+00 -3.90534313e-01 -4.67107937e-01 -3.90534313e-01 -1.94558227e+01
3.91382515e+00 -3.41382682e-01 5.33679783e-01 -3.41382682e-01 1.44075507e+00 -4.38826751e-01 5.33679783e-01 -4.38826751e-01 -2.41436107e+01
2.35689408e+00 -5.37142916e-01 -8.33960623e-02 -5.37142916e-01 2.20269707e+00 8.44179370e-01 -8.33960623e-02 8.44179370e-01 -2.49598492e+01
7.12855345e+00 -5.56966417e-01 6.73310518e-01 -5.56966417e-01 5.74835768e+00 3.11583742e-01 6.73310518e-01 3.11583742e-01 -1.60140846e+01
3.31583932e+00 -2.93181002e-01 4.69957302e-01 -2.93181002e-01 2.28984534e+00 5.75363753e-01 4.69957302e-01 5.75363753e-01 -2.39145329e+01
8.38136077e+00 6.33397236e-01 4.06676665e-01 6.33397236e-01 8.93301487e+00 1.11521792e+00 4.06676665e-01 1.11521792e+00 -1.12925014e+01
6.28347301e+00 3.27124432e-01 -4.64566167e-01 3.27124432e-01 5.33788252e+00 2.98391465e-01 -4.64566167e-01 2.98391465e-01 -1.74069571e+01
3.28251410e+00 -8.16530382e-01 6.70727080e-01 -8.16530382e-01 5.84532726e+00 -1.10987119e+00 6.70727080e-01 -1.10987119e+00 -1.98448716e+01
-1.45659769e+00 -7.45676056e-01 1.97484913e+00 -7.45676056e-01 2.55360776e+00 -3.74482527e-01 1.97484913e+00 -3.74482527e-01 -2.82042453e+01
-1.13729990e+01 -8.05200977e-01 1.90173115e+00 -8.05200977e-01 -7.53847216e+00 -4.71366143e-01 1.90173115e+00 -4.71366143e-01 -5.12150341e+01
-4.23089306e+01 -4.92024631e+00 1.22868400e+01 -4.92024631e+00 -4.14458278e+01 6.52236122e-01 1.22868400e+01 6.52236122e-01 -1.10792854e+02
-2.99941711e+01 -3.62966858e-01 1.71785444e+00 -3.62966858e-01 -2.57758026e+01 2.68500541e+00 1.71785444e+00 2.68500541e+00 -8.99215183e+01
-3.13667979e+01 -6.02655053e-01 3.52897823e+00 -6.02655053e-01 -2.59843910e+01 5.18261528e+00 3.52897823e+00 5.18261528e+00 -9.03816032e+01
-3.42639942e+01 -2.72640538e+00 1.81086296e+00 -2.72640538e+00 -2.61164246e+01 5.82347804e+00 1.81086296e+00 5.82347804e+00 -9.30915031e+01
9.54151195e+00 4.92087938e-02 1.76689476e+00 4.92087938e-02 1.18226364e+01 -1.03463418e+00 1.76689476e+00 -1.03463418e+00 -6.58614063e+00
6.87459767e+00 -3.18674183e-01 1.56805927e+00 -3.18674183e-01 8.39138103e+00 -1.98894629e-01 1.56805927e+00 -1.98894629e-01 -1.32413625e+01
-2.37088890e+01 -1.49538641e+00 6.36553256e+00 -1.49538641e+00 -1.87073238e+01 1.00652094e+01 6.36553256e+00 1.00652094e+01 -6.78762665e+01
2.44446921e+00 -2.94220793e+00 -1.58444071e+00 -2.94220793e+00 6.72114277e+00 5.67069185e+00 -1.58444071e+00 5.67069185e+00 1.73726516e+01
1.01052718e+01 9.72296577e-03 2.01979171e+00 9.72296577e-03 8.34294367e+00 9.11665486e-01 2.01979171e+00 9.11665486e-01 -8.85374884e+00
1.02100022e+01 7.42664874e-01 9.99983819e-01 7.42664874e-01 9.88627061e+00 9.03236791e-01 9.99983819e-01 9.03236791e-01 -8.19947028e+00
2.20843260e+01 -2.46835064e+00 1.21681147e+00 -2.46835064e+00 2.05120858e+01 2.26888648e-01 1.21681147e+00 2.26888648e-01 1.62234128e+01
2.34692879e+01 -1.32009866e+00 -5.73893507e+00 -1.32009866e+00 2.46915325e+01 -1.07406282e+00 -5.73893507e+00 -1.07406282e+00 1.87819700e+01
9.97670062e+00 -4.94923389e-01 3.77751373e-01 -4.94923389e-01 7.69528764e+00 4.00837715e-01 3.77751373e-01 4.00837715e-01 -1.03921575e+01
9.84576619e+00 -7.84180939e-01 3.48079264e-01 -7.84180939e-01 7.57652095e+00 6.03837781e-01 3.48079264e-01 6.03837781e-01 -1.08813269e+01
-1.48570299e-01 -2.48826072e+00 6.56667702e-01 -2.48826072e+00 -3.73337865e-01 2.35612509e+00 6.56667702e-01 2.35612509e+00 -2.86371360e+01
-1.10487509e+01 -3.80626097e-01 -1.67790364e+00 -3.80626097e-01 -1.07899592e+01 4.93068954e+00 -1.67790364e+00 4.93068954e+00 -5.40365138e+01
9.27174330e-01 -4.31728540e-01 -4.54162654e-01 -4.31728540e-01 1.99002719e+00 -2.66402647e-01 -4.54162654e-01 -2.66402647e-01 -2.69779358e+01
-5.40647268e-01 -5.80536947e-02 -2.80963659e-01 -5.80536947e-02 -1.57672286e+00 1.03093129e+00 -2.80963659e-01 1.03093129e+00 -3.21611128e+01
-3.78523684e+00 3.37318540e-01 1.06244313e+00 3.37318540e-01 1.35924697e+00 -1.13590929e+00 1.06244313e+00 -1.13590929e+00 -3.22759085e+01
-6.16709518e+01 -1.26282197e+00 -2.10487014e+00 -1.26282197e+00 -5.66044769e+01 4.64347875e+00 -2.10487014e+00 4.64347875e+00 -1.58619011e+02
-3.63094211e-02 -5.89330435e-01 -1.34158753e-01 -5.89330435e-01 1.50039978e-01 7.75294006e-02 -1.34158753e-01 7.75294006e-02 -5.36464214e-01
-3.05485126e-01 -2.29626372e-01 -1.67029023e-01 -2.29626372e-01 -3.81125957e-02 -1.13015532e-01 -1.67029023e-01 -1.13015532e-01 -7.91281154e-02
5.02794176e-01 -1.89079501e-01 4.24214350e-02 -1.89079501e-01 5.07290885e-02 4.21053715e-01 4.24214350e-02 4.21053715e-01 -9.76244807e-01
2.73739392e-01 -5.48868507e-01 -3.81603241e-02 -5.48868507e-01 -2.59381585e-01 -4.15571570e-01 -3.81603241e-02 -4.15571570e-01 -4.37164336e-01
-1.94928169e-01 1.64095741e-02 6.76525056e-01 1.64095741e-02 4.31828499e-01 -1.54846560e-01 6.76525056e-01 -1.54846560e-01 -2.97634096e+01
2.60995422e-01 3.16971868e-01 4.21513923e-01 3.16971868e-01 1.45759553e-01 3.69300976e-01 4.21513923e-01 3.69300976e-01 -2.95292420e+01
2.89076950e+00 -7.16323860e-01 7.38327300e-01 -7.16323860e-01 3.50233278e+00 5.02121705e-01 7.38327300e-01 5.02121705e-01 -2.29602939e+01
-1.80048048e-01 1.87734185e-01 8.03238258e-01 1.87734185e-01 1.35165524e+00 -4.38239388e-01 8.03238258e-01 -4.38239388e-01 -2.86849756e+01
4.21601564e+00 -1.05979052e+00 4.01591986e-01 -1.05979052e+00 2.59463853e+00 1.37227444e-01 4.01591986e-01 1.37227444e-01 -2.25576102e+01
5.07115268e+00 -1.00904215e+00 1.14225263e+00 -1.00904215e+00 4.41285401e+00 9.23942368e-01 1.14225263e+00 9.23942368e-01 -1.93610930e+01
6.43201625e+00 1.55531213e-01 8.91927816e-02 1.55531213e-01 4.00398010e+00 6.90522950e-01 8.91927816e-02 6.90522950e-01 -1.85332321e+01
8.95401376e+00 -2.78884880e-01 3.10862996e-03 -2.78884880e-01 6.58789912e+00 -3.77091467e-02 3.10862996e-03 -3.77091467e-02 -1.30422781e+01
8.81677550e+00 2.74914443e-01 -2.16257384e-01 2.74914443e-01 5.76881018e+00 2.36027829e-01 -2.16257384e-01 2.36027829e-01 -1.39928041e+01
2.34262800e+00 2.69743281e-01 -8.03076621e-01 2.69743281e-01 -1.84678912e-01 8.83530416e-02 -8.03076621e-01 8.83530416e-02 -2.74486939e+01
1.19811282e+01 -5.42982146e-02 1.46697823e-01 -5.42982146e-02 9.51901388e+00 -2.48974115e-01 1.46697823e-01 -2.48974115e-01 -6.58692539e+00