<VTKFile type="UnstructuredGrid" version="0.1" byte_order="LittleEndian">
<UnstructuredGrid>
<Piece NumberOfPoints="173" NumberOfCells="80">
<Points>
<DataArray type="Float64" NumberOfComponents="3" format="ascii">
 0.00000000e+00  0.00000000e+00  0.00000000e+00
 1.02852726e+00  0.00000000e+00  0.00000000e+00
 1.03084564e+00  1.05651307e+00  0.00000000e+00
 0.00000000e+00  1.05403757e+00  0.00000000e+00
 0.00000000e+00  0.00000000e+00  9.33712065e-01
 1.02834141e+00  0.00000000e+00  9.30916965e-01
 1.02892268e+00  1.05227864e+00  9.34364855e-01
 0.00000000e+00  1.05149209e+00  9.36654210e-01
 2.06105995e+00  0.00000000e+00  0.00000000e+00
 2.06183720e+00  1.06151795e+00  0.00000000e+00
 2.05968451e+00  0.00000000e+00  9.24721003e-01
 2.06150126e+00  1.05522549e+00  9.29072499e-01
 3.09495044e+00  0.00000000e+00  0.00000000e+00
 3.09818101e+00  1.06870675e+00  0.00000000e+00
 3.09946108e+00  0.00000000e+00  9.18595135e-01
 3.09555006e+00  1.05823541e+00  9.20773268e-01
 4.14095688e+00  0.00000000e+00  0.00000000e+00
 4.13222170e+00  1.07441819e+00  0.00000000e+00
 4.14445210e+00  0.00000000e+00  9.11302030e-01
 4.13471889e+00  1.05917287e+00  9.14901197e-01
 5.18812895e+00  0.00000000e+00  0.00000000e+00
 5.17556858e+00  1.08019161e+00  0.00000000e+00
 5.19206333e+00  0.00000000e+00  9.02809381e-01
 5.18316936e+00  1.06182754e+00  9.09259558e-01
 6.24115133e+00  0.00000000e+00  0.00000000e+00
 6.20915651e+00  1.10152638e+00  0.00000000e+00
 6.23743296e+00  0.00000000e+00  9.00095165e-01
 6.22962379e+00  1.08004487e+00  8.98528218e-01
 1.03407097e+00  2.09965420e+00  0.00000000e+00
 0.00000000e+00  2.09785008e+00  0.00000000e+00
 1.03097105e+00  2.09653306e+00  9.43859220e-01
 0.00000000e+00  2.09374022e+00  9.44783568e-01
 2.06797504e+00  2.10933399e+00  0.00000000e+00
 2.06204700e+00  2.10183978e+00  9.43496108e-01
 3.09517264e+00  2.11758828e+00  0.00000000e+00
 3.09074998e+00  2.10833192e+00  9.50340688e-01
 4.11814928e+00  2.13251209e+00  0.00000000e+00
 4.12069988e+00  2.10978699e+00  9.47802722e-01
 5.13387489e+00  2.13592482e+00  0.00000000e+00
 5.14571905e+00  2.11432004e+00  9.50851202e-01
 6.15691566e+00  2.16332102e+00  0.00000000e+00
 6.17708349e+00  2.14097452e+00  9.50644732e-01
 1.03654110e+00  3.12558627e+00  0.00000000e+00
 0.00000000e+00  3.12322712e+00  0.00000000e+00
 1.03261137e+00  3.12638879e+00  9.55385983e-01
 0.00000000e+00  3.12504864e+00  9.55365896e-01
 2.07222533e+00  3.12781453e+00  0.00000000e+00
 2.06508303e+00  3.12888527e+00  9.66422379e-01
 3.09162235e+00  3.13526011e+00  0.00000000e+00
 3.08739090e+00  3.13274693e+00  9.89016891e-01
 4.09586954e+00  3.14185929e+00  0.00000000e+00
 4.09059954e+00  3.13285136e+00  1.00359941e+00
 5.10737801e+00  3.13709450e+00  0.00000000e+00
 5.10814810e+00  3.12521553e+00  1.00957859e+00
 6.10986042e+00  3.16774344e+00  0.00000000e+00
 6.11368370e+00  3.16392684e+00  1.00336051e+00
 1.03798008e+00  4.13917255e+00  0.00000000e+00
 0.00000000e+00  4.14175510e+00  0.00000000e+00
 1.03301811e+00  4.14111423e+00  9.61473048e-01
 0.00000000e+00  4.14441156e+00  9.59515929e-01
 2.07088637e+00  4.13724518e+00  0.00000000e+00
 2.06352448e+00  4.13513708e+00  9.73762393e-01
 3.08691478e+00  4.13563490e+00  0.00000000e+00
 3.08091712e+00  4.13417530e+00  9.94692981e-01
 4.08487797e+00  4.14036369e+00  0.00000000e+00
 4.08449507e+00  4.14032316e+00  1.00002170e+00
 6.08482170e+00  4.14651442e+00  0.00000000e+00
 5.08485126e+00  4.14320993e+00  0.00000000e+00
 6.08493948e+00  4.14655495e+00  9.99759376e-01
 5.08493805e+00  4.14318419e+00  1.00001979e+00
 1.03607988e+00  5.15267754e+00  0.00000000e+00
 0.00000000e+00  5.15892220e+00  0.00000000e+00
 1.03341818e+00  5.15729332e+00  9.59569216e-01
 0.00000000e+00  5.15965796e+00  9.54348624e-01
 2.06882668e+00  5.14224100e+00  0.00000000e+00
 2.05844736e+00  5.14434767e+00  9.70498681e-01
 3.08071828e+00  5.13657188e+00  0.00000000e+00
 3.07632613e+00  5.13814068e+00  9.93723273e-01
 4.08192158e+00  5.14040279e+00  0.00000000e+00
 4.08174181e+00  5.14041233e+00  1.00027239e+00
 5.08179426e+00  5.14332199e+00  0.00000000e+00
 5.08189297e+00  5.14330149e+00  1.00002122e+00
 6.08190393e+00  5.14626312e+00  0.00000000e+00
 6.08192158e+00  5.14620113e+00  9.99998927e-01
 1.04045367e+00  6.17594624e+00  0.00000000e+00
 0.00000000e+00  6.17887402e+00  0.00000000e+00
 1.03609753e+00  6.17577505e+00  9.51515436e-01
 0.00000000e+00  6.18313646e+00  9.46518421e-01
 2.07468390e+00  6.15660143e+00  0.00000000e+00
 2.05989742e+00  6.16882753e+00  9.57079530e-01
 3.08210301e+00  6.14184713e+00  0.00000000e+00
 3.07877994e+00  6.15197039e+00  9.83793318e-01
 4.07991266e+00  6.14091873e+00  0.00000000e+00
 4.07935238e+00  6.14090157e+00  1.00049496e+00
 5.07902765e+00  6.14318705e+00  0.00000000e+00
 5.07914209e+00  6.14326811e+00  9.99971569e-01
 6.07899284e+00  6.14621639e+00  0.00000000e+00
 6.07902098e+00  6.14618206e+00  9.99997139e-01
 0.00000000e+00  0.00000000e+00  1.87330127e+00
 1.02965868e+00  0.00000000e+00  1.86740756e+00
 1.02880287e+00  1.04340994e+00  1.87342739e+00
 0.00000000e+00  1.04422832e+00  1.87480545e+00
 2.06620026e+00  0.00000000e+00  1.85936165e+00
 2.05897593e+00  1.03827810e+00  1.86213684e+00
 3.10333490e+00  0.00000000e+00  1.84771323e+00
 3.10352492e+00  1.03748024e+00  1.84805286e+00
 4.15261221e+00  0.00000000e+00  1.83108401e+00
 4.14857864e+00  1.03829873e+00  1.84244788e+00
 5.20289516e+00  0.00000000e+00  1.81880438e+00
 5.19797468e+00  1.04015017e+00  1.83199358e+00
 6.24290466e+00  0.00000000e+00  1.81189001e+00
 6.25216579e+00  1.04436886e+00  1.82200527e+00
 1.02381861e+00  2.08552647e+00  1.88735366e+00
 0.00000000e+00  2.09022212e+00  1.89239824e+00
 2.05551314e+00  2.08447099e+00  1.88235724e+00
 3.09250641e+00  2.08866024e+00  1.87894773e+00
 4.14125395e+00  2.09974885e+00  1.86276567e+00
 5.19322491e+00  2.10159516e+00  1.86629367e+00
 6.24022055e+00  2.10786486e+00  1.85451579e+00
 1.02038848e+00  3.12353349e+00  1.90912437e+00
 0.00000000e+00  3.12522292e+00  1.91367269e+00
 2.04654050e+00  3.12447858e+00  1.92178380e+00
 3.04229379e+00  3.11237407e+00  2.00632238e+00
 1.02261519e+00  4.15295506e+00  1.92762649e+00
 0.00000000e+00  4.14951038e+00  1.92082155e+00
 2.04868412e+00  4.14139605e+00  1.94931197e+00
 3.06266928e+00  4.12049389e+00  1.97856629e+00
 1.02702749e+00  5.16463280e+00  1.92234778e+00
 0.00000000e+00  5.16920853e+00  1.91708696e+00
 2.04594326e+00  5.15750313e+00  1.93884695e+00
 3.08005905e+00  5.14595461e+00  1.95139217e+00
 1.02272773e+00  6.19247675e+00  1.90092468e+00
 0.00000000e+00  6.19043922e+00  1.89888823e+00
 2.04637694e+00  6.19778204e+00  1.90963018e+00
 3.08683157e+00  6.19105434e+00  1.91083395e+00
 5.08192968e+00  5.14333963e+00  2.00002718e+00
 6.08192921e+00  5.14619827e+00  2.00002074e+00
 6.07906628e+00  6.14620543e+00  1.99998665e+00
 5.07904148e+00  6.14334965e+00  1.99997270e+00
 0.00000000e+00  0.00000000e+00  2.81006980e+00
 1.03584898e+00  0.00000000e+00  2.80820394e+00
 1.03732312e+00  1.03886759e+00  2.81387591e+00
 0.00000000e+00  1.03763080e+00  2.81832743e+00
 2.07919860e+00  0.00000000e+00  2.79652190e+00
 2.07026052e+00  1.03216791e+00  2.80464315e+00
 3.11790156e+00  0.00000000e+00  2.78375483e+00
 3.11864281e+00  1.02770996e+00  2.78662777e+00
 4.16455221e+00  0.00000000e+00  2.77194715e+00
 4.16669035e+00  1.02923965e+00  2.76773763e+00
 5.21240234e+00  0.00000000e+00  2.75701714e+00
 5.21359062e+00  1.03162134e+00  2.75953817e+00
 6.25586510e+00  0.00000000e+00  2.75110650e+00
 6.25665140e+00  1.03093255e+00  2.75393581e+00
 1.02542913e+00  2.07285094e+00  2.83189869e+00
 0.00000000e+00  2.08353615e+00  2.83462882e+00
 2.06812000e+00  2.07309771e+00  2.81195474e+00
 3.11053967e+00  2.07883048e+00  2.77695632e+00
 4.16469383e+00  2.08777881e+00  2.76896954e+00
 5.21289206e+00  2.08109713e+00  2.76919889e+00
 6.25418186e+00  2.08266020e+00  2.76492333e+00
 1.02081740e+00  3.12576365e+00  2.86706734e+00
 0.00000000e+00  3.12312531e+00  2.86289215e+00
 2.06083465e+00  3.11028647e+00  2.84010363e+00
 1.02045941e+00  4.15437603e+00  2.88952494e+00
 0.00000000e+00  4.16025877e+00  2.88601851e+00
 2.05145478e+00  4.15490866e+00  2.91599607e+00
 1.02197742e+00  5.18967199e+00  2.88200474e+00
 0.00000000e+00  5.18472433e+00  2.87957835e+00
 2.05007768e+00  5.18843412e+00  2.88660479e+00
 3.06127000e+00  4.18386316e+00  3.01349497e+00
 3.08092690e+00  5.18115044e+00  2.87150764e+00
 1.02389193e+00  6.21677065e+00  2.85819149e+00
 0.00000000e+00  6.21874475e+00  2.84877944e+00
</DataArray>
</Points>
<PointData Tensors="Stress_Components,Plastic_strain_components" Vevtors="Spatial_displacement,Reaction_force" Scalars="Equivalent_plastic_strain,Stress_Mises,Stress_Max_Principal,Stress_Mid_Principal,Stress_Min_Principal,Stress_Pressure,Stress_Tresca,Stress_Third_Invariant,Plastic_strain_Max_Principal,Plastic_strain_Min_Principal">
<DataArray type="Float32" Name="Stress_Components" NumberOfComponents="9" format="ascii">
-3.44178653e+00 -6.47321716e-03 -1.09533919e-02 -6.47321716e-03 9.82267439e-01 4.08646744e-03 -1.09533919e-02 4.08646744e-03 -3.23393250e+01
-7.22006839e+00 2.34971538e-01 -2.75727070e-03 2.34971538e-01 -2.20694339e+00 -2.13417985e-01 -2.75727070e-03 -2.13417985e-01 -3.98322525e+01
-4.00268310e+00 4.84305322e-01 -4.24401153e-01 4.84305322e-01 -7.36218989e-01 -3.29486653e-01 -4.24401153e-01 -3.29486653e-01 -3.49180062e+01
-3.33389020e+00 1.44263104e-01 -3.60601857e-01 1.44263104e-01 -3.49582672e-01 1.45937698e-02 -3.60601857e-01 1.45937698e-02 -3.38295841e+01
-1.73382974e+00 -3.89916217e-03 1.86107397e-02 -3.89916217e-03 2.37155640e+00 -3.05584952e-01 1.86107397e-02 -3.05584952e-01 -2.90173931e+01
-5.00841546e+00 1.13652233e-01 4.18692820e-01 1.13652233e-01 -5.31476289e-01 -5.49517788e-01 4.18692820e-01 -5.49517788e-01 -3.56636894e+01
-2.73318091e+00 3.24644824e-01 -8.30060349e-02 3.24644824e-01 4.62576061e-01 -4.22809169e-01 -8.30060349e-02 -4.22809169e-01 -3.22599836e+01
-3.55960596e+00 1.08494857e-01 -1.40387202e-01 1.08494857e-01 -3.81498218e-01 7.19776340e-02 -1.40387202e-01 7.19776340e-02 -3.40774603e+01
-1.03391806e+01 1.16295617e-01 -1.57455085e-02 1.16295617e-01 -4.64537024e+00 -4.42314133e-01 -1.57455085e-02 -4.42314133e-01 -4.57819452e+01
-1.14473584e+01 1.06296307e+00 -6.96205154e-01 1.06296307e+00 -6.68494749e+00 -3.80024813e-01 -6.96205154e-01 -3.80024813e-01 -4.92483215e+01
-5.83966738e+00 1.66748729e-01 4.01841424e-01 1.66748729e-01 -2.01743234e+00 -2.17441183e-01 4.01841424e-01 -2.17441183e-01 -3.83115933e+01
-7.02965242e+00 2.90120634e-01 -5.93328376e-01 2.90120634e-01 -3.07155228e+00 -1.20278510e+00 -5.93328376e-01 -1.20278510e+00 -4.06126882e+01
-1.46896770e+01 6.09981000e-01 -6.50608186e-02 6.09981000e-01 -8.57316899e+00 4.19487208e-01 -6.50608186e-02 4.19487208e-01 -5.47486115e+01
-1.80483497e+01 7.18626238e-01 -1.43349923e+00 7.18626238e-01 -1.16733842e+01 -1.06144804e+00 -1.43349923e+00 -1.06144804e+00 -6.16734569e+01
-6.46163976e+00 -4.70130645e-01 -3.84167828e-01 -4.70130645e-01 -3.92718807e+00 -2.23798519e-01 -3.84167828e-01 -2.23798519e-01 -4.11840360e+01
-1.11685501e+01 -4.51767214e-01 -5.29143028e-02 -4.51767214e-01 -6.47029771e+00 -8.93538555e-01 -5.29143028e-02 -8.93538555e-01 -4.86739455e+01
-1.79312007e+01 -1.40230173e+00 -8.94835703e-02 -1.40230173e+00 -1.26102019e+01 2.06276394e-01 -8.94835703e-02 2.06276394e-01 -6.27131138e+01
-2.57549849e+01 -1.18597722e+00 -2.52310410e+00 -1.18597722e+00 -1.47305830e+01 -3.90737541e-02 -2.52310410e+00 -3.90737541e-02 -7.25373435e+01
-8.48268843e+00 -1.40902749e+00 -1.10926080e-01 -1.40902749e+00 -6.68260777e+00 -1.50191048e-01 -1.10926080e-01 -1.50191048e-01 -4.63334785e+01
-2.53446817e+00 -1.08062790e+00 -2.97512358e-01 -1.08062790e+00 -6.17937058e-01 2.49610117e-01 -2.97512358e-01 2.49610117e-01 -3.33234102e+01
-1.96410477e+01 -7.55363170e-01 -2.04482578e-01 -7.55363170e-01 -1.22772917e+01 1.02793694e+00 -2.04482578e-01 1.02793694e+00 -6.39753532e+01
-1.33848157e+01 -3.22004926e+00 -2.40688172e+00 -3.22004926e+00 -6.55888918e+00 7.58354127e-01 -2.40688172e+00 7.58354127e-01 -5.01198359e+01
-3.93500781e+00 -6.47130400e-01 -1.40702834e-01 -6.47130400e-01 -2.08499110e+00 1.12608707e+00 -1.40702834e-01 1.12608707e+00 -3.64310369e+01
7.32316077e-01 -2.01240934e+00 1.92552937e-01 -2.01240934e+00 1.58583771e+00 3.73715511e-01 1.92552937e-01 3.73715511e-01 -2.72194375e+01
-4.66573143e+01 -4.73296261e+00 -1.94126859e-01 -4.73296261e+00 -3.16627522e+01 5.26270032e-01 -1.94126859e-01 5.26270032e-01 -1.12820618e+02
-5.31994877e+01 -4.83075601e+00 -3.39134884e+00 -4.83075601e+00 -3.06308413e+01 4.80423284e+00 -3.39134884e+00 4.80423284e+00 -1.15947800e+02
-2.50542588e+01 -6.89147517e-01 -1.44405207e+00 -6.89147517e-01 -1.60121865e+01 2.15771893e+00 -1.44405207e+00 2.15771893e+00 -7.35273647e+01
-2.30672359e+01 -1.98426050e+00 -4.61833581e-01 -1.98426050e+00 -1.62068747e+01 2.67317864e+00 -4.61833581e-01 2.67317864e+00 -7.09971339e+01
-6.79573059e-01 8.56283627e-01 -5.20966168e-01 8.56283627e-01 -2.53265786e+00 -4.03802756e-01 -5.20966168e-01 -4.03802756e-01 -3.33173923e+01
1.06916523e+00 1.53461907e-01 -6.67401776e-01 1.53461907e-01 -4.65473652e-01 4.97958180e-03 -6.67401776e-01 4.97958180e-03 -2.92332172e+01
-1.07014561e+00 6.13630306e-01 2.13858480e-01 6.13630306e-01 -7.81764597e-01 -8.36469719e-01 2.13858480e-01 -8.36469719e-01 -3.19390108e+01
2.60109460e+00 2.89939329e-01 9.14185081e-01 2.89939329e-01 2.65448523e+00 -5.06895259e-02 9.14185081e-01 -5.06895259e-02 -2.42857118e+01
-3.51306581e+00 2.26460392e+00 -9.76341680e-01 2.26460392e+00 -5.94985914e+00 -1.25878747e+00 -9.76341680e-01 -1.25878747e+00 -3.96634276e+01
-2.42921761e+00 1.50313686e+00 1.62061614e+00 1.50313686e+00 -2.49060053e+00 -4.77478342e-01 1.62061614e+00 -4.77478342e-01 -3.46783503e+01
1.47166396e+01 1.26357703e+00 -1.37316566e+00 1.26357703e+00 1.32687028e+01 -7.35537544e-01 -1.37316566e+00 -7.35537544e-01 -6.14768028e-01
3.46716894e+00 8.32945973e-01 4.08689126e+00 8.32945973e-01 4.79945867e+00 -6.81401672e-02 4.08689126e+00 -6.81401672e-02 -2.08267704e+01
2.17254086e+01 -1.72100937e+00 -4.54744710e+00 -1.72100937e+00 1.56565905e+01 -1.65534826e-01 -4.54744710e+00 -1.65534826e-01 9.78663635e+00
-9.63695006e+00 -6.22936493e+00 8.12267737e+00 -6.22936493e+00 -6.30947256e+00 8.91870574e-01 8.12267737e+00 8.91870574e-01 -4.20089353e+01
2.38561200e+01 -9.01048277e-02 -4.38442987e+00 -9.01048277e-02 1.89883597e+01 1.00752078e+00 -4.38442987e+00 1.00752078e+00 1.52967938e+01
-3.52688750e+00 -4.77148741e+00 9.30826529e+00 -4.77148741e+00 -7.24176494e+00 3.21177448e+00 9.30826529e+00 3.21177448e+00 -3.38574384e+01
1.17475510e+01 -5.19695342e+00 -5.80879152e+00 -5.19695342e+00 2.36163712e+00 3.08519429e+00 -5.80879152e+00 3.08519429e+00 -1.25996246e+01
-2.89802119e+01 -9.75552336e+00 9.63124533e+00 -9.75552336e+00 -2.28558553e+01 6.30328278e+00 9.63124533e+00 6.30328278e+00 -7.82151693e+01
2.22085792e+00 5.94094150e-01 2.94130236e-01 5.94094150e-01 -5.83000231e+00 -7.14745902e-01 2.94130236e-01 -7.14745902e-01 -3.27975506e+01
5.32389092e+00 2.74540596e-01 3.51770356e-01 2.74540596e-01 3.07644844e-01 -8.28881934e-03 3.51770356e-01 -8.28881934e-03 -2.34444184e+01
3.28593388e+00 2.10762320e-01 1.22025485e+00 2.10762320e-01 -2.75455719e+00 -6.10438939e-01 1.22025485e+00 -6.10438939e-01 -2.86755130e+01
6.81210260e+00 1.32595296e-01 9.61141407e-01 1.32595296e-01 4.07197845e+00 -3.60116014e-01 9.61141407e-01 -3.60116014e-01 -1.79699105e+01
1.83799849e+01 -1.32223815e-01 -1.53549239e-02 -1.32223815e-01 1.31077142e+01 -1.29564799e+00 -1.53549239e-02 -1.29564799e+00 4.35567760e+00
1.24637291e+01 2.24229828e-01 1.26940247e+00 2.24229828e-01 3.77885640e+00 1.29069919e+00 1.26940247e+00 1.29069919e+00 -1.16549963e+01
2.73326585e+01 -1.37847967e-01 2.79725544e-01 -1.37847967e-01 2.26293037e+01 -1.20155171e+00 2.79725544e-01 -1.20155171e+00 2.30437255e+01
3.18101820e+01 -9.85539441e-01 -4.41237330e-01 -9.85539441e-01 2.86546033e+01 2.62852007e+00 -4.41237330e-01 2.62852007e+00 3.48245287e+01
2.65205847e+01 -2.67194794e+00 3.09528510e-01 -2.67194794e+00 2.38426632e+01 -3.66723642e+00 3.09528510e-01 -3.66723642e+00 3.32101885e+01
2.94023711e+01 8.19796085e-01 -9.01671394e+00 8.19796085e-01 3.10311605e+01 4.67301088e+00 -9.01671394e+00 4.67301088e+00 4.63581946e+01
3.51636848e+01 -9.28651740e-02 3.26256231e+00 -9.28651740e-02 3.83016586e+01 -5.44599921e-01 3.26256231e+00 -5.44599921e-01 3.96950467e+01
3.05858062e+01 4.82959501e+00 -8.95412747e+00 4.82959501e+00 3.72403062e+01 -1.61334709e+00 -8.95412747e+00 -1.61334709e+00 4.75286980e+01
1.99883239e+01 5.21017480e+00 -1.66093075e+00 5.21017480e+00 6.52135658e+00 1.11023247e+00 -1.66093075e+00 1.11023247e+00 3.31873143e+01
2.69710741e+01 6.41469204e+00 -1.39823534e+00 6.41469204e+00 1.64861617e+01 -2.47254169e+00 -1.39823534e+00 -2.47254169e+00 3.60740561e+01
3.90930367e+00 -7.42264949e-01 1.73168480e-01 -7.42264949e-01 -6.31566215e+00 -1.11254908e+00 1.73168480e-01 -1.11254908e+00 -3.08164620e+01
2.75270820e+00 -7.09057122e-01 4.58038613e-01 -7.09057122e-01 -5.37288165e+00 -3.35705150e-02 4.58038613e-01 -3.35705150e-02 -3.17043409e+01
6.78796512e+00 -1.07440861e+00 1.67663435e+00 -1.07440861e+00 2.47836113e-04 -8.04752703e-02 1.67663435e+00 -8.04752703e-02 -2.13690491e+01
4.70292014e+00 -8.25997174e-01 4.68581107e-01 -8.25997174e-01 -1.04118399e+00 4.01373513e-02 4.68581107e-01 4.01373513e-02 -2.54244621e+01
1.12005699e+01 -2.09726205e+00 -8.20677944e-01 -2.09726205e+00 2.41775846e+00 -2.06570631e+00 -8.20677944e-01 -2.06570631e+00 -1.32202220e+01
1.49713069e+01 -1.32494878e+00 -3.88973139e-01 -1.32494878e+00 9.12313771e+00 2.65991541e+00 -3.88973139e-01 2.65991541e+00 -1.63396865e+00
1.98829668e+01 -7.37567365e-01 -6.68391436e-02 -7.37567365e-01 2.63436402e+01 -4.62306863e+00 -6.68391436e-02 -4.62306863e+00 2.19109823e+01
2.60977492e+01 -3.47669224e-02 -3.15139902e-02 -3.47669224e-02 2.59560901e+01 -1.45326093e+00 -3.15139902e-02 -1.45326093e+00 2.47741146e+01
1.33066672e+01 1.27532625e+00 2.41100391e-02 1.27532625e+00 2.13186264e+01 -3.05153173e+00 2.41100391e-02 -3.05153173e+00 1.76206287e+01
1.42870522e+01 3.07094542e+00 -6.13174429e-01 3.07094542e+00 5.69468943e+00 3.49579700e+00 -6.13174429e-01 3.49579700e+00 -9.03300444e-02
-4.70302355e+00 -5.70864630e+00 4.41530205e-01 -5.70864630e+00 -2.48743033e+01 1.27189144e+00 4.41530205e-01 1.27189144e+00 -9.52855802e+00
7.09536791e+00 -2.35921542e-01 -7.98751990e-01 -2.35921542e-01 1.36233480e+01 1.26001851e+00 -7.98751990e-01 1.26001851e+00 9.10522747e+00
2.04389656e+00 -5.17930722e+00 1.55046952e+00 -5.17930722e+00 -1.78019156e+01 -1.55280284e+00 1.55046952e+00 -1.55280284e+00 -3.21092993e+00
3.94576653e+00 -2.26704129e+00 -2.33700770e+00 -2.26704129e+00 8.18846810e+00 -6.97642614e-01 -2.33700770e+00 -6.97642614e-01 -2.05158170e+00
3.15725058e+00 -1.92070614e+00 1.21218957e+00 -1.92070614e+00 -5.45719063e+00 -3.62251449e-01 1.21218957e+00 -3.62251449e-01 -3.08601279e+01
1.72497582e+00 -1.46554244e+00 3.05741847e-01 -1.46554244e+00 -6.03160214e+00 -6.04563660e-03 3.05741847e-01 -6.04563660e-03 -3.35835905e+01
8.06956862e+00 -1.42220573e+00 5.03318491e-01 -1.42220573e+00 3.73717743e+00 4.92656304e-01 5.03318491e-01 4.92656304e-01 -1.65276839e+01
4.34701085e+00 -5.02907284e-01 -4.50812373e-02 -5.02907284e-01 -1.89413249e+00 7.40719296e-01 -4.50812373e-02 7.40719296e-01 -2.65050988e+01
9.73117006e+00 -2.35667074e+00 4.31387706e-01 -2.35667074e+00 3.61721003e+00 -2.74498749e+00 4.31387706e-01 -2.74498749e+00 -1.39089949e+01
1.01245304e+01 -2.27718912e+00 -6.45276977e-01 -2.27718912e+00 6.68093710e+00 1.96782705e+00 -6.45276977e-01 1.96782705e+00 -1.02412515e+01
1.63389918e+01 1.58840370e+00 2.16856067e+00 1.58840370e+00 1.84800404e+01 -2.28462541e+00 2.16856067e+00 -2.28462541e+00 8.44024038e+00
1.06471741e+01 -1.68601463e+00 -1.29771443e+00 -1.68601463e+00 8.44403283e+00 3.49952837e+00 -1.29771443e+00 3.49952837e+00 -7.06908751e+00
1.21675415e+01 4.32696564e+00 2.23208655e-01 4.32696564e+00 1.37124686e+01 -1.29468493e+00 2.23208655e-01 -1.29468493e+00 1.34827162e+01
8.67528099e+00 2.35882762e+00 2.56461710e+00 2.35882762e+00 3.60934412e+00 8.94965172e-01 2.56461710e+00 8.94965172e-01 3.48939538e+00
4.25816000e-01 7.59187758e-01 -3.75174902e-01 7.59187758e-01 2.23539042e+00 1.85853267e+00 -3.75174902e-01 1.85853267e+00 3.41467592e+00
3.10642861e+00 6.41786051e-01 -7.65242255e-01 6.41786051e-01 8.57273477e-01 -6.93122739e-01 -7.65242255e-01 -6.93122739e-01 2.12467277e-01
2.89981604e+00 5.72637081e-01 -1.29657358e+00 5.72637081e-01 -7.87537909e+00 3.66891995e-01 -1.29657358e+00 3.66891995e-01 -1.88459158e+00
9.30562188e-01 -8.27690837e-01 7.50826557e-01 -8.27690837e-01 -5.70564322e+00 -1.66160914e-01 7.50826557e-01 -1.66160914e-01 -1.67368968e-01
-1.35207140e+01 -2.25604081e+00 5.59711635e-01 -2.25604081e+00 -2.24792686e+01 -1.11168277e+00 5.59711635e-01 -1.11168277e+00 -6.77954521e+01
-1.13802471e+01 -7.51480520e-01 1.43328941e+00 -7.51480520e-01 -2.34909439e+01 -2.65876055e-02 1.43328941e+00 -2.65876055e-02 -6.61956635e+01
-5.66055566e+00 -1.10528900e+00 5.61299920e-02 -1.10528900e+00 -1.21193278e+01 -1.00707898e+00 5.61299920e-02 -1.00707898e+00 -4.85581226e+01
-1.20450578e+01 -1.56299949e+00 -1.55568451e-01 -1.56299949e+00 -1.99002886e+01 8.49910557e-01 -1.55568451e-01 8.49910557e-01 -6.38698959e+01
-2.03316588e+01 -4.85852373e+00 5.41730702e+00 -4.85852373e+00 -2.72632942e+01 -5.35582232e+00 5.41730702e+00 -5.35582232e+00 -7.85971184e+01
-1.16803113e+01 -3.53156814e+00 6.81102812e-01 -3.53156814e+00 -1.05711749e+01 4.43005651e-01 6.81102812e-01 4.43005651e-01 -5.34951687e+01
8.16106606e+00 9.20093194e-01 4.83924913e+00 9.20093194e-01 1.72710013e+01 -2.73853340e+00 4.83924913e+00 -2.73853340e+00 -1.57286835e+00
-2.96055050e+01 -7.43032265e+00 1.72492250e+00 -7.43032265e+00 -2.40541678e+01 1.10634181e+01 1.72492250e+00 1.10634181e+01 -8.35499636e+01
6.04478645e+00 -2.13842517e+00 -7.00944364e-02 -2.13842517e+00 1.95360808e+01 -2.35381620e+00 -7.00944364e-02 -2.35381620e+00 1.66039662e+01
-1.24470780e+01 -8.52852210e+00 1.05426168e+00 -8.52852210e+00 -9.81145787e+00 6.64509821e+00 1.05426168e+00 6.64509821e+00 -9.74642277e+00
-6.19560967e+00 -6.55605316e-01 1.35914159e+00 -6.55605316e-01 2.44076657e+00 2.08063871e+00 1.35914159e+00 2.08063871e+00 5.78552269e+00
-4.07307601e+00 -2.79136260e-01 8.29982022e-01 -2.79136260e-01 2.96443831e+00 -3.03013452e+00 8.29982022e-01 -3.03013452e+00 3.57278212e+00
-1.82151341e+00 2.46545434e+00 -7.14924037e-01 2.46545434e+00 -2.31433821e+00 5.87633133e-01 -7.14924037e-01 5.87633133e-01 -6.65589631e-01
-3.93501019e+00 2.76659787e-01 -1.51254714e-01 2.76659787e-01 3.21664631e-01 1.29933447e+00 -1.51254714e-01 1.29933447e+00 6.58735178e-01
-2.21049571e+00 2.07881210e-04 -4.71302513e-02 2.07881210e-04 1.07168984e+00 -5.29417306e-01 -4.71302513e-02 -5.29417306e-01 -3.10632052e+01
-1.01850332e+00 3.82109901e-02 5.63894413e-01 3.82109901e-02 1.17378020e+00 -4.52931265e-01 5.63894413e-01 -4.52931265e-01 -2.97298808e+01
1.48777192e+00 -3.63779383e-01 1.41740627e-01 -3.63779383e-01 3.98805259e+00 1.08128991e-01 1.41740627e-01 1.08128991e-01 -2.39363618e+01
-2.74395883e+00 -3.37338042e-02 1.64920688e-02 -3.37338042e-02 9.54879493e-01 5.38025931e-02 1.64920688e-02 5.38025931e-02 -3.16886690e+01
4.11187640e+00 -8.10182445e-01 5.99216715e-01 -8.10182445e-01 4.29360953e+00 2.67213836e-01 5.99216715e-01 2.67213836e-01 -2.08918016e+01
3.64405265e+00 -5.59665667e-01 -2.77692898e-01 -5.59665667e-01 4.87751818e+00 -9.16351678e-01 -2.77692898e-01 -9.16351678e-01 -2.05760792e+01
4.10889763e+00 -1.32355052e-02 -1.00972177e-01 -1.32355052e-02 3.47965437e+00 -2.54585594e-02 -1.00972177e-01 -2.54585594e-02 -2.17865932e+01
6.25034717e+00 -4.11817929e-01 -5.48817687e-01 -4.11817929e-01 5.68549880e+00 -4.45538968e-01 -5.48817687e-01 -4.45538968e-01 -1.70373917e+01
4.17523050e+00 -2.94620335e-01 2.81033555e-01 -2.94620335e-01 2.11089391e+00 -3.38108681e-01 2.81033555e-01 -3.38108681e-01 -2.31627824e+01
3.35204673e+00 -5.57194056e-01 -1.81530588e-01 -5.57194056e-01 3.12504816e+00 7.98983664e-01 -1.81530588e-01 7.98983664e-01 -2.28982566e+01
8.61670911e+00 -5.46389401e-01 3.55519895e-01 -5.46389401e-01 7.31765193e+00 4.52346288e-01 3.55519895e-01 4.52346288e-01 -1.27097325e+01
3.93097594e+00 -3.69053582e-01 2.58431590e-01 -3.69053582e-01 2.87526844e+00 6.02185532e-01 2.58431590e-01 6.02185532e-01 -2.26310138e+01
8.67867327e+00 5.43452293e-01 5.37423138e-02 5.43452293e-01 9.38047791e+00 1.47941196e+00 5.37423138e-02 1.47941196e+00 -1.03725491e+01
5.88119054e+00 2.97702700e-01 -7.19448250e-01 2.97702700e-01 4.98119259e+00 5.99940996e-01 -7.19448250e-01 5.99940996e-01 -1.81859028e+01
4.35062522e+00 -6.10974322e-01 4.97029795e-01 -6.10974322e-01 6.32256860e+00 -9.57750751e-01 4.97029795e-01 -9.57750751e-01 -1.82730911e+01
-1.34426072e+00 -6.56260192e-01 1.68644939e+00 -6.56260192e-01 1.85240337e+00 -1.72698518e-01 1.68644939e+00 -1.72698518e-01 -2.90379431e+01
-1.09395969e+01 -5.67885783e-01 9.39410241e-01 -5.67885783e-01 -7.08949535e+00 -3.33799409e-01 9.39410241e-01 -3.33799409e-01 -5.10719956e+01
-5.14305856e+01 -6.34442245e+00 1.45054453e+01 -6.34442245e+00 -5.12703249e+01 6.38140643e-01 1.45054453e+01 6.38140643e-01 -1.27459392e+02
-3.61771827e+01 -5.73656220e-01 1.33111462e+00 -5.73656220e-01 -3.19396644e+01 2.55421126e+00 1.33111462e+00 2.55421126e+00 -1.03384008e+02
-3.58462014e+01 -9.21604067e-01 3.21339667e+00 -9.21604067e-01 -2.97977571e+01 5.21310830e+00 3.21339667e+00 5.21310830e+00 -9.94397039e+01
-4.03134060e+01 -3.49044609e+00 2.32693952e+00 -3.49044609e+00 -3.08144140e+01 6.32233346e+00 2.32693952e+00 6.32233346e+00 -1.04322109e+02
1.20774095e+01 2.71478859e-02 1.23039360e+00 2.71478859e-02 1.38532177e+01 -1.00961654e+00 1.23039360e+00 -1.00961654e+00 -1.91047221e+00
8.99684834e+00 -2.39664244e-01 1.33407892e+00 -2.39664244e-01 9.72235906e+00 -2.71823015e-02 1.33407892e+00 -2.71823015e-02 -9.57985783e+00
-2.91356684e+01 -1.68874001e+00 6.25882526e+00 -1.68874001e+00 -2.43565200e+01 1.11796816e+01 6.25882526e+00 1.11796816e+01 -7.67857865e+01
2.25401058e+01 -2.34404564e-01 -6.52390826e+00 -2.34404564e-01 2.55497408e+01 1.66383553e+00 -6.52390826e+00 1.66383553e+00 4.43322201e+01
1.26756332e+01 -1.14347573e-01 1.85386704e+00 -1.14347573e-01 1.09035772e+01 6.74297981e-01 1.85386704e+00 6.74297981e-01 -3.46541727e+00
1.27566708e+01 7.37864748e-01 5.69532666e-01 7.37864748e-01 1.25676588e+01 5.92454877e-01 5.69532666e-01 5.92454877e-01 -2.59755301e+00
2.58429055e+01 -2.03985631e+00 6.23620851e-01 -2.03985631e+00 2.39446967e+01 -2.62873352e-01 6.23620851e-01 -2.62873352e-01 2.27764138e+01
2.23705977e+01 -1.11610623e+00 -5.73771345e+00 -1.11610623e+00 2.32316936e+01 -4.46932395e-01 -5.73771345e+00 -4.46932395e-01 1.72451223e+01
1.33508004e+01 -2.67035356e-01 3.29577947e-01 -2.67035356e-01 1.07246658e+01 2.24355713e-01 3.29577947e-01 2.24355713e-01 -3.62228215e+00
1.05328216e+01 -7.82566734e-01 3.98008704e-01 -7.82566734e-01 8.27345362e+00 5.43936111e-01 3.98008704e-01 5.43936111e-01 -9.43738794e+00
1.16159540e+00 -2.63684682e+00 6.94785699e-01 -2.63684682e+00 8.52416515e-01 2.33010442e+00 6.94785699e-01 2.33010442e+00 -2.57764426e+01
-1.56135788e+01 -1.02362339e+00 -8.61172862e-01 -1.02362339e+00 -1.44447281e+01 5.55609752e+00 -8.61172862e-01 5.55609752e+00 -6.36273870e+01
-3.71194988e-01 -6.10486545e-01 -3.41241959e-01 -6.10486545e-01 1.22190595e-01 -1.72381178e-01 -3.41241959e-01 -1.72381178e-01 -3.03917770e+01
-2.40188622e+00 -2.95919359e-01 -3.36006641e-01 -2.95919359e-01 -4.33363666e+00 1.33013237e+00 -3.36006641e-01 1.33013237e+00 -3.71095810e+01
-4.58482170e+00 1.45664573e-01 1.16234963e+00 1.45664573e-01 1.32156610e+00 -1.84572575e+00 1.16234963e+00 -1.84572575e+00 -3.30615616e+01
-7.56738052e+01 -2.40548575e+00 -4.23117566e+00 -2.40548575e+00 -7.10625153e+01 4.78497422e+00 -4.23117566e+00 4.78497422e+00 -1.89108101e+02
-1.74115531e-01 -6.18767112e-01 -2.28898082e-01 -6.18767112e-01 2.43557524e-01 1.97841763e-01 -2.28898082e-01 1.97841763e-01 -4.81628060e-01
-3.95025965e-01 -1.00713275e-01 -1.18138850e-01 -1.00713275e-01 -7.58871362e-02 -2.12064586e-01 -1.18138850e-01 -2.12064586e-01 5.87219731e-02
6.48621544e-01 -1.49928868e-01 -5.46370260e-02 -1.49928868e-01 -6.83916286e-02 5.62184028e-01 -5.46370260e-02 5.62184028e-01 -9.92385060e-01
3.85176316e-01 -6.68136448e-01 -2.17747092e-02 -6.68136448e-01 -2.33335353e-01 -5.04669219e-01 -2.17747092e-02 -5.04669219e-01 -5.64132735e-01
2.29098558e-01 2.68564709e-02 3.90629128e-01 2.68564709e-02 9.30831671e-01 -1.00860439e-01 3.90629128e-01 -1.00860439e-01 -2.87749991e+01
7.55301185e-01 4.06353734e-01 2.32521463e-01 4.06353734e-01 7.07622558e-01 3.49266037e-01 2.32521463e-01 3.49266037e-01 -2.83861897e+01
4.38245640e+00 -4.44308132e-01 3.97926137e-01 -4.44308132e-01 5.01871038e+00 4.98641384e-01 3.97926137e-01 4.98641384e-01 -1.97605792e+01
5.53715527e-01 2.01918183e-01 4.77966726e-01 2.01918183e-01 2.07495874e+00 -2.98259407e-01 4.77966726e-01 -2.98259407e-01 -2.71245668e+01
5.35772282e+00 -9.14373368e-01 2.39946200e-01 -9.14373368e-01 4.20061642e+00 7.46373888e-02 2.39946200e-01 7.46373888e-02 -1.96204627e+01
5.75548933e+00 -7.16931310e-01 9.72844880e-01 -7.16931310e-01 5.44704662e+00 9.31592750e-01 9.72844880e-01 9.31592750e-01 -1.75859522e+01
6.91135716e+00 1.21554578e-01 1.63834941e-01 1.21554578e-01 5.27070695e+00 6.22023137e-01 1.63834941e-01 6.22023137e-01 -1.67020540e+01
1.05526336e+01 -1.64507485e-01 6.44109435e-02 -1.64507485e-01 8.61787346e+00 1.48963975e-02 6.44109435e-02 1.48963975e-02 -9.19701836e+00
9.18763366e+00 2.12539293e-01 -1.07324260e-01 2.12539293e-01 6.74672957e+00 3.45079530e-01 -1.07324260e-01 3.45079530e-01 -1.25958751e+01
3.60655543e+00 1.59789057e-01 -5.95002478e-01 1.59789057e-01 1.21534377e+00 6.75303089e-02 -5.95002478e-01 6.75303089e-02 -2.46418553e+01
1.24554991e+01 -1.27570170e-01 6.46113893e-02 -1.27570170e-01 1.03767893e+01 -1.18275095e-01 6.46113893e-02 -1.18275095e-01 -5.18184280e+00