<VTKFile type="UnstructuredGrid" version="0.1" byte_order="LittleEndian">
<UnstructuredGrid>
<Piece NumberOfPoints="173" NumberOfCells="80">
<Points>
<DataArray type="Float64" NumberOfComponents="3" format="ascii">
 0.00000000e+00  0.00000000e+00  0.00000000e+00
 1.01070368e+00  0.00000000e+00  0.00000000e+00
 1.01199293e+00  1.02649808e+00  0.00000000e+00
 0.00000000e+00  1.02499902e+00  0.00000000e+00
 0.00000000e+00  0.00000000e+00  9.69892204e-01
 1.01102376e+00  0.00000000e+00  9.68419015e-01
 1.01120055e+00  1.02409816e+00  9.70133543e-01
 0.00000000e+00  1.02371633e+00  9.72127318e-01
 2.02393794e+00  0.00000000e+00  0.00000000e+00
 2.02453279e+00  1.02986634e+00  0.00000000e+00
 2.02379870e+00  0.00000000e+00  9.63776648e-01
 2.02470684e+00  1.02596009e+00  9.66776192e-01
 3.03861356e+00  0.00000000e+00  0.00000000e+00
 3.03970027e+00  1.03447962e+00  0.00000000e+00
 3.04114747e+00  0.00000000e+00  9.58976567e-01
 3.03949594e+00  1.02826428e+00  9.61971343e-01
 4.05915070e+00  0.00000000e+00  0.00000000e+00
 4.05506372e+00  1.03821373e+00  0.00000000e+00
 4.06150913e+00  0.00000000e+00  9.54658151e-01
 4.05723000e+00  1.02914751e+00  9.57076371e-01
 5.08337307e+00  0.00000000e+00  0.00000000e+00
 5.07569456e+00  1.04152894e+00  0.00000000e+00
 5.08468676e+00  0.00000000e+00  9.47808027e-01
 5.07971907e+00  1.03071260e+00  9.52730954e-01
 6.11115837e+00  0.00000000e+00  0.00000000e+00
 6.09344721e+00  1.05465305e+00  0.00000000e+00
 6.10725164e+00  0.00000000e+00  9.44544911e-01
 6.10333776e+00  1.04010415e+00  9.45708096e-01
 1.01385546e+00  2.04544210e+00  0.00000000e+00
 0.00000000e+00  2.04418945e+00  0.00000000e+00
 1.01223063e+00  2.04403019e+00  9.75954473e-01
 0.00000000e+00  2.04268074e+00  9.76368666e-01
 2.02751327e+00  2.05050683e+00  0.00000000e+00
 2.02500582e+00  2.04719090e+00  9.76366282e-01
 3.03840899e+00  2.05560493e+00  0.00000000e+00
 3.03665257e+00  2.05084205e+00  9.80239391e-01
 4.04791069e+00  2.06278205e+00  0.00000000e+00
 4.04957151e+00  2.05317497e+00  9.78628874e-01
 5.05478144e+00  2.06637979e+00  0.00000000e+00
 5.06052732e+00  2.05636382e+00  9.79783714e-01
 6.06518269e+00  2.08008814e+00  0.00000000e+00
 6.07566023e+00  2.07015014e+00  9.79102194e-01
 1.01510084e+00  3.05598497e+00  0.00000000e+00
 0.00000000e+00  3.05480719e+00  0.00000000e+00
 1.01308382e+00  3.05613327e+00  9.82243717e-01
 0.00000000e+00  3.05552220e+00  9.81036067e-01
 2.02833414e+00  3.05765843e+00  0.00000000e+00
 2.02558851e+00  3.05779624e+00  9.87638712e-01
 3.03595209e+00  3.06174946e+00  0.00000000e+00
 3.03380942e+00  3.06012654e+00  9.95729029e-01
 4.03722000e+00  3.06628132e+00  0.00000000e+00
 4.03567600e+00  3.06148839e+00  1.00110805e+00
 5.04324102e+00  3.06563020e+00  0.00000000e+00
 5.04282188e+00  3.06113410e+00  1.00345993e+00
 6.04436636e+00  3.08037138e+00  0.00000000e+00
 6.04531336e+00  3.07828760e+00  1.00190020e+00
 1.01521826e+00  4.06083441e+00  0.00000000e+00
 0.00000000e+00  4.06164265e+00  0.00000000e+00
 1.01308024e+00  4.06193733e+00  9.84891653e-01
 0.00000000e+00  4.06277084e+00  9.83430624e-01
 2.02720857e+00  4.06091118e+00  0.00000000e+00
 2.02433038e+00  4.06016827e+00  9.90490198e-01
 3.03233099e+00  4.06196833e+00  0.00000000e+00
 3.02992558e+00  4.06110811e+00  9.97871161e-01
 4.03159857e+00  4.06521893e+00  0.00000000e+00
 4.03142023e+00  4.06513786e+00  9.99952793e-01
 6.03196955e+00  4.07140636e+00  0.00000000e+00
 5.03184891e+00  4.06788635e+00  0.00000000e+00
 6.03204393e+00  4.07154465e+00  9.99937832e-01
 5.03187132e+00  4.06797791e+00  1.00010002e+00
 1.01423860e+00  5.06630182e+00  0.00000000e+00
 0.00000000e+00  5.06838465e+00  0.00000000e+00
 1.01263177e+00  5.06766987e+00  9.84055638e-01
 0.00000000e+00  5.06862354e+00  9.81082082e-01
 2.02546382e+00  5.06279755e+00  0.00000000e+00
 2.02152205e+00  5.06364679e+00  9.89999354e-01
 3.02873206e+00  5.06268549e+00  0.00000000e+00
 3.02734828e+00  5.06263447e+00  9.98498797e-01
 4.02890730e+00  5.06515169e+00  0.00000000e+00
 4.02872276e+00  5.06511211e+00  1.00018430e+00
 5.02877283e+00  5.06804323e+00  0.00000000e+00
 5.02884293e+00  5.06805182e+00  1.00000429e+00
 6.02879238e+00  5.07111406e+00  0.00000000e+00
 6.02882671e+00  5.07106209e+00  9.99957144e-01
 1.01587248e+00  6.07504702e+00  0.00000000e+00
 0.00000000e+00  6.07671976e+00  0.00000000e+00
 1.01343226e+00  6.07479525e+00  9.81301785e-01
 0.00000000e+00  6.07784271e+00  9.78165150e-01
 2.02711558e+00  6.06806231e+00  0.00000000e+00
 2.02161908e+00  6.07194662e+00  9.85856533e-01
 3.02773666e+00  6.06364727e+00  0.00000000e+00
 3.02705050e+00  6.06643629e+00  9.96407747e-01
 4.02646112e+00  6.06526279e+00  0.00000000e+00
 4.02615547e+00  6.06530666e+00  1.00019181e+00
 5.02593756e+00  6.06802273e+00  0.00000000e+00
 5.02598047e+00  6.06805229e+00  1.00002456e+00
 6.02588224e+00  6.07103586e+00  0.00000000e+00
 6.02590752e+00  6.07100010e+00  1.00001442e+00
 0.00000000e+00  0.00000000e+00  1.94269013e+00
 1.01257467e+00  0.00000000e+00  1.93928742e+00
 1.01177669e+00  1.01957560e+00  1.94290042e+00
 0.00000000e+00  1.02021837e+00  1.94413149e+00
 2.02828121e+00  0.00000000e+00  1.93454075e+00
 2.02467155e+00  1.01661360e+00  1.93496513e+00
 3.04464793e+00  0.00000000e+00  1.92623258e+00
 3.04487467e+00  1.01576328e+00  1.92666864e+00
 4.06728697e+00  0.00000000e+00  1.91473651e+00
 4.06530476e+00  1.01661777e+00  1.92339504e+00
 5.08962202e+00  0.00000000e+00  1.90601003e+00
 5.08782768e+00  1.01758015e+00  1.91565537e+00
 6.10728931e+00  0.00000000e+00  1.90022278e+00
 6.11225080e+00  1.01812053e+00  1.90880215e+00
 1.00873542e+00  2.03873754e+00  1.95086503e+00
 0.00000000e+00  2.04066777e+00  1.95457768e+00
 2.02210665e+00  2.03796148e+00  1.94855440e+00
 3.03955722e+00  2.04083467e+00  1.94674706e+00
 4.06190681e+00  2.04594612e+00  1.93587661e+00
 5.08680582e+00  2.04694700e+00  1.93632650e+00
 6.11161470e+00  2.04811811e+00  1.92783058e+00
 1.00722313e+00  3.05536675e+00  1.96245134e+00
 0.00000000e+00  3.05563927e+00  1.96555018e+00
 2.01798105e+00  3.05577374e+00  1.97103608e+00
 3.01611614e+00  3.05422401e+00  2.00276566e+00
 1.00860214e+00  4.06617975e+00  1.97172678e+00
 0.00000000e+00  4.06520796e+00  1.96831894e+00
 2.01761508e+00  4.06272984e+00  1.98166263e+00
 3.02181745e+00  4.05547523e+00  1.99339151e+00
 1.00895488e+00  5.07056761e+00  1.97006655e+00
 0.00000000e+00  5.07213116e+00  1.96724737e+00
 2.01643109e+00  5.06794500e+00  1.97880864e+00
 3.02934504e+00  5.06358862e+00  1.98301196e+00
 1.00649774e+00  6.08089399e+00  1.96139514e+00
 0.00000000e+00  6.07883167e+00  1.96216965e+00
 2.01585937e+00  6.08365536e+00  1.96703637e+00
 3.03205204e+00  6.08181715e+00  1.96764266e+00
 5.02888918e+00  5.06804037e+00  2.00001121e+00
 6.02889633e+00  5.07096052e+00  1.99996459e+00
 6.02595663e+00  6.07097530e+00  2.00001073e+00
 5.02593994e+00  6.06804466e+00  2.00003219e+00
 0.00000000e+00  0.00000000e+00  2.91310954e+00
 1.01634991e+00  0.00000000e+00  2.91177130e+00
 1.01648581e+00  1.01731884e+00  2.91595316e+00
 0.00000000e+00  1.01702917e+00  2.91872334e+00
 2.03595233e+00  0.00000000e+00  2.90451980e+00
 2.03151107e+00  1.01340115e+00  2.91059947e+00
 3.05358124e+00  0.00000000e+00  2.89716196e+00
 3.05382514e+00  1.01036274e+00  2.89938831e+00
 4.07487822e+00  0.00000000e+00  2.89013743e+00
 4.07549810e+00  1.01111388e+00  2.88730931e+00
 5.09484196e+00  0.00000000e+00  2.88042331e+00
 5.09611082e+00  1.01244426e+00  2.88230991e+00
 6.11168480e+00  0.00000000e+00  2.87618756e+00
 6.11375332e+00  1.01088238e+00  2.87858772e+00
 1.01046419e+00  2.03186679e+00  2.92713881e+00
 0.00000000e+00  2.03720951e+00  2.92872667e+00
 2.02890015e+00  2.03096032e+00  2.91295099e+00
 3.04916525e+00  2.03456879e+00  2.89257312e+00
 4.07612371e+00  2.03902936e+00  2.88967657e+00
 5.09883785e+00  2.03412986e+00  2.88766670e+00
 6.11770344e+00  2.03078485e+00  2.88545871e+00
 1.00695086e+00  3.05534744e+00  2.94735909e+00
 0.00000000e+00  3.05430937e+00  2.94296265e+00
 2.02564025e+00  3.04927254e+00  2.93003774e+00
 1.00624406e+00  4.06716537e+00  2.95725203e+00
 0.00000000e+00  4.06991196e+00  2.95618415e+00
 2.01744032e+00  4.06705046e+00  2.97148728e+00
 1.00721312e+00  5.07992792e+00  2.95529199e+00
 0.00000000e+00  5.07709408e+00  2.95583797e+00
 2.01794910e+00  5.08085585e+00  2.95593691e+00
 3.02021885e+00  4.07430935e+00  3.00580215e+00
 3.03328586e+00  5.07573366e+00  2.95141602e+00
 1.00730753e+00  6.08921671e+00  2.94814205e+00
 0.00000000e+00  6.08966780e+00  2.94267607e+00
</DataArray>
</Points>
<PointData Tensors="Stress_Components,Plastic_strain_components" Vevtors="Spatial_displacement,Reaction_force" Scalars="Equivalent_plastic_strain,Stress_Mises,Stress_Max_Principal,Stress_Mid_Principal,Stress_Min_Principal,Stress_Pressure,Stress_Tresca,Stress_Third_Invariant,Plastic_strain_Max_Principal,Plastic_strain_Min_Principal">
<DataArray type="Float32" Name="Stress_Components" NumberOfComponents="9" format="ascii">
-3.88153887e+00 2.11219303e-04 -4.85216267e-03 2.11219303e-04 2.53884387e+00 -2.17429921e-03 -4.85216267e-03 -2.17429921e-03 -3.07535191e+01
-5.19891430e+00 2.91715264e-01 -8.96630168e-04 2.91715264e-01 1.40144086e+00 -5.71413264e-02 -8.96630168e-04 -5.71413264e-02 -3.33996716e+01
-3.74389005e+00 8.48839700e-01 -5.81096537e-01 8.48839700e-01 1.01748362e+00 -2.82571480e-01 -5.81096537e-01 -2.82571480e-01 -3.24805202e+01
-1.77056280e+00 3.14658657e-01 -3.35229263e-01 3.14658657e-01 2.70016021e+00 5.74410520e-03 -3.35229263e-01 5.74410520e-03 -2.86167803e+01
-2.72823918e+00 -3.64641077e-04 4.14726600e-01 -3.64641077e-04 3.23967302e+00 -3.94866183e-01 4.14726600e-01 -3.94866183e-01 -2.88072748e+01
-4.01740760e+00 8.84061046e-02 4.81584311e-01 8.84061046e-02 1.86601932e+00 -5.14929906e-01 4.81584311e-01 -5.14929906e-01 -3.17332563e+01
-2.45698783e+00 4.43085257e-01 1.17215312e-02 4.43085257e-01 2.06977146e+00 -6.93269901e-01 1.17215312e-02 -6.93269901e-01 -3.00035461e+01
-2.81482112e+00 1.19289663e-01 1.05176190e-01 1.19289663e-01 1.89710692e+00 -3.32663976e-01 1.05176190e-01 -3.32663976e-01 -3.05806322e+01
-8.90778747e+00 5.92919523e-02 -1.20784533e-02 5.92919523e-02 -1.68182349e+00 -3.11122417e-01 -1.20784533e-02 -3.11122417e-01 -4.07272778e+01
-7.70513010e+00 1.44866897e+00 -8.17379020e-01 1.44866897e+00 -2.07775629e+00 -6.24560085e-02 -8.17379020e-01 -6.24560085e-02 -3.99741504e+01
-3.78714019e+00 2.52183650e-01 4.95953768e-01 2.52183650e-01 1.06861150e+00 -4.73152415e-01 4.95953768e-01 -4.73152415e-01 -3.25641708e+01
-5.96697897e+00 6.46580771e-01 -3.11572157e-01 6.46580771e-01 -1.23071490e+00 -1.26174661e+00 -3.11572157e-01 -1.26174661e+00 -3.73263631e+01
-1.30422814e+01 5.88569045e-01 -4.31749802e-02 5.88569045e-01 -5.31219855e+00 6.08193830e-01 -4.31749802e-02 6.08193830e-01 -4.91063347e+01
-1.16271138e+01 1.01478113e+00 -1.49952397e+00 1.01478113e+00 -5.32391024e+00 -6.47031404e-01 -1.49952397e+00 -6.47031404e-01 -4.77960324e+01
-5.10395470e+00 -5.01858391e-01 1.47533389e-01 -5.01858391e-01 -1.40229511e+00 -5.29301532e-01 1.47533389e-01 -5.29301532e-01 -3.69107709e+01
-8.17496365e+00 -2.69199997e-01 3.78339589e-01 -2.69199997e-01 -3.29284179e+00 -7.40384992e-01 3.78339589e-01 -7.40384992e-01 -4.18279426e+01
-1.32676010e+01 -9.63394731e-01 -3.09030656e-02 -9.63394731e-01 -6.50698677e+00 3.66259351e-01 -3.09030656e-02 3.66259351e-01 -5.08546867e+01
-1.70395463e+01 -8.39764979e-01 -2.60199276e+00 -8.39764979e-01 -8.57304287e+00 1.63903208e-01 -2.60199276e+00 1.63903208e-01 -5.68262706e+01
-7.30674517e+00 -1.18648514e+00 4.70551379e-01 -1.18648514e+00 -4.19351637e+00 -3.08803455e-01 4.70551379e-01 -3.08803455e-01 -4.23378224e+01
-3.35697254e+00 -1.31394459e+00 5.05788639e-01 -1.31394459e+00 -7.57452548e-01 1.81649819e-01 5.05788639e-01 1.81649819e-01 -3.41502646e+01
-1.50346550e+01 -1.23834577e+00 -6.64171204e-02 -1.23834577e+00 -7.46579897e+00 5.79121858e-01 -6.64171204e-02 5.79121858e-01 -5.36809959e+01
-1.36778286e+01 -3.09249263e+00 -2.88990206e+00 -3.09249263e+00 -6.40841365e+00 1.05667798e+00 -2.88990206e+00 1.05667798e+00 -5.02288566e+01
-4.74077368e+00 -9.04018294e-01 9.43726085e-01 -9.04018294e-01 -1.77618825e+00 3.55114179e-01 9.43726085e-01 3.55114179e-01 -3.69123394e+01
-3.69668959e+00 -2.22230158e+00 1.16296019e+00 -2.22230158e+00 -1.74763788e+00 4.14483080e-01 1.16296019e+00 4.14483080e-01 -3.53984906e+01
-3.53013039e+01 -4.52462482e+00 -4.57773693e-02 -4.52462482e+00 -2.03013000e+01 -4.06008400e-02 -4.57773693e-02 -4.06008400e-02 -8.78508530e+01
-3.84495173e+01 -4.04126465e+00 -4.01712608e+00 -4.04126465e+00 -2.08624330e+01 4.15056622e+00 -4.01712608e+00 4.15056622e+00 -9.03507271e+01
-1.71983726e+01 -9.45930332e-01 1.11226570e-01 -9.45930332e-01 -8.46613684e+00 3.78779054e-01 1.11226570e-01 3.78779054e-01 -5.71209526e+01
-1.68420027e+01 -2.13010064e+00 6.30037054e-01 -2.13010064e+00 -1.06211178e+01 1.65744184e+00 6.30037054e-01 1.65744184e+00 -5.82691674e+01
6.18715942e-01 1.41935417e+00 -4.33130644e-01 1.41935417e+00 -2.71384716e-01 -5.17311402e-01 -4.33130644e-01 -5.17311402e-01 -2.93737919e+01
1.23841900e+00 2.26133138e-01 -6.81171864e-01 2.26133138e-01 5.96278906e-01 1.54893380e-03 -6.81171864e-01 1.54893380e-03 -2.78909855e+01
-6.39707372e-01 9.38450769e-01 6.30271411e-01 9.38450769e-01 5.61909527e-01 -1.00139887e+00 6.30271411e-01 -1.00139887e+00 -2.98962457e+01
2.37185895e+00 4.40359548e-01 9.62067857e-01 4.40359548e-01 3.54358211e+00 -1.92670640e-01 9.62067857e-01 -1.92670640e-01 -2.35357940e+01
1.64961004e+00 2.25656408e+00 -1.36550792e+00 2.25656408e+00 2.13210583e-02 -1.10317093e+00 -1.36550792e+00 -1.10317093e+00 -2.74790035e+01
-5.81542701e-01 1.30094766e+00 1.65253259e+00 1.30094766e+00 3.85393858e-01 -4.14597317e-01 1.65253259e+00 -4.14597317e-01 -2.97659897e+01
1.12522555e+01 1.11081784e+00 -1.28839642e+00 1.11081784e+00 1.00170271e+01 -6.49682760e-01 -1.28839642e+00 -6.49682760e-01 -7.32255602e+00
2.81891935e+00 3.82484971e-01 3.54733585e+00 3.82484971e-01 3.83816866e+00 1.93057669e-01 3.54733585e+00 1.93057669e-01 -2.22636531e+01
1.12029889e+01 -2.87188785e+00 -3.37630045e+00 -2.87188785e+00 1.01924623e+01 -6.45561783e-02 -3.37630045e+00 -6.45561783e-02 -5.94925213e+00
-1.03591696e+00 -3.54532152e+00 5.07781057e+00 -3.54532152e+00 3.50084970e-01 1.15933895e+00 5.07781057e+00 1.15933895e+00 -2.86196950e+01
1.59876632e+01 -1.45528511e+00 -3.39971300e+00 -1.45528511e+00 9.45057428e+00 1.74025627e+00 -3.39971300e+00 1.74025627e+00 -3.65221500e-01
2.33639852e+00 -3.47658702e+00 5.98122704e+00 -3.47658702e+00 1.34953549e-01 3.61438653e+00 5.98122704e+00 3.61438653e+00 -2.33213768e+01
1.51625738e+01 -3.82161236e+00 -3.94157147e+00 -3.82161236e+00 5.27271461e+00 3.05254585e+00 -3.94157147e+00 3.05254585e+00 -4.79254150e+00
-1.56885993e+01 -7.09370956e+00 5.82872222e+00 -7.09370956e+00 -1.35724824e+01 6.55101858e+00 5.82872222e+00 6.55101858e+00 -5.66115322e+01
4.73216265e+00 8.05860370e-01 2.16822680e-01 8.05860370e-01 -2.11784041e+00 -8.24436367e-01 2.16822680e-01 -8.24436367e-01 -2.62234769e+01
3.33226508e+00 4.67585474e-01 4.25354406e-01 4.67585474e-01 -2.74639547e+00 -1.61463451e-02 4.25354406e-01 -1.61463451e-02 -2.87335100e+01
3.25108609e+00 5.80198832e-01 1.48314936e+00 5.80198832e-01 -1.63210937e+00 -4.34375819e-01 1.48314936e+00 -4.34375819e-01 -2.75806003e+01
5.73999000e+00 2.16959719e-01 1.37443450e+00 2.16959719e-01 2.83092377e+00 -8.37316923e-03 1.37443450e+00 -8.37316923e-03 -2.04298979e+01
1.09728147e+01 1.26993388e+00 3.00695736e-01 1.26993388e+00 5.55171807e+00 -1.64793114e+00 3.00695736e-01 -1.64793114e+00 -1.13132041e+01
1.11379491e+01 5.45302947e-01 1.84779430e+00 5.45302947e-01 4.47539850e+00 7.23901469e-01 1.84779430e+00 7.23901469e-01 -1.23178042e+01
2.44521728e+01 5.43878436e-01 -1.50430191e+00 5.43878436e-01 2.04194011e+01 -1.05993443e+00 -1.50430191e+00 -1.05993443e+00 1.76624293e+01
2.45909504e+01 -8.14799650e-01 3.28517904e-02 -8.14799650e-01 2.17733545e+01 1.34240170e+00 3.28517904e-02 1.34240170e+00 1.98370589e+01
3.32890450e+01 2.11928964e+00 -4.36966537e+00 2.11928964e+00 2.86044569e+01 -1.13706282e+00 -4.36966537e+00 -1.13706282e+00 4.28554354e+01
4.71318817e+00 -6.47644075e+00 1.17525260e-01 -6.47644075e+00 1.14830656e+01 3.35479576e+00 1.17525260e-01 3.35479576e+00 4.11519305e+00
3.30769094e+01 3.83076104e+00 -3.73618716e+00 3.83076104e+00 3.68654474e+01 -5.35419782e-01 -3.73618716e+00 -5.35419782e-01 4.52243818e+01
6.69108693e+00 1.64541562e-01 6.53263569e-01 1.64541562e-01 1.24218499e+01 -7.31593172e-01 6.53263569e-01 -7.31593172e-01 9.85117187e+00
2.60062616e+01 3.34087396e+00 -2.58499110e+00 3.34087396e+00 1.01786842e+01 1.18592024e-01 -2.58499110e+00 1.18592024e-01 3.40581104e+01
4.06431675e-01 -1.72514963e+00 4.90769458e+00 -1.72514963e+00 -9.36452624e+00 -1.46250874e+00 4.90769458e+00 -1.46250874e+00 -2.84975719e+00
5.24015452e+00 -5.79343576e-01 4.40126106e-01 -5.79343576e-01 -4.21263837e+00 -1.17425339e+00 4.40126106e-01 -1.17425339e+00 -2.72693253e+01
3.72302794e+00 -5.62352598e-01 6.43845379e-01 -5.62352598e-01 -4.81619728e+00 -1.68049876e-02 6.43845379e-01 -1.68049876e-02 -2.99217529e+01
5.89128461e+00 -1.00833226e+00 1.93309534e+00 -1.00833226e+00 -1.20515978e+00 -7.86357373e-03 1.93309534e+00 -7.86357373e-03 -2.35770477e+01
4.34061909e+00 -7.44971707e-01 6.86943137e-01 -7.44971707e-01 -2.41561881e+00 3.66924547e-01 6.86943137e-01 3.66924547e-01 -2.70698371e+01
9.33458132e+00 -7.29846910e-01 -5.54646142e-01 -7.29846910e-01 1.42719726e+00 -2.17022195e+00 -5.54646142e-01 -2.17022195e+00 -1.70196473e+01
1.05451212e+01 -1.48379551e+00 7.81872801e-01 -1.48379551e+00 3.44146892e+00 1.75428651e+00 7.81872801e-01 1.75428651e+00 -1.30328225e+01
1.31356193e+01 -2.19738143e+00 -1.57415465e+00 -2.19738143e+00 1.14594557e+01 -5.20093927e+00 -1.57415465e+00 -5.20093927e+00 8.56603146e-01
1.62828345e+01 -6.14994347e-01 -2.03445067e-01 -6.14994347e-01 1.06608603e+01 1.38704139e+00 -2.03445067e-01 1.38704139e+00 2.18179842e-01
1.18512549e+01 7.09028681e-01 -2.62376217e+00 7.09028681e-01 1.29302444e+01 -2.95696310e+00 -2.62376217e+00 -2.95696310e+00 9.31642755e+00
1.34468284e+01 2.55824103e+00 5.45782328e-01 2.55824103e+00 5.61519178e+00 5.75144958e+00 5.45782328e-01 5.75144958e+00 -7.89779305e-01
2.51645708e+00 -3.32642078e+00 1.36121064e+00 -3.32642078e+00 -1.84395790e+01 7.77007110e-01 1.36121064e+00 7.77007110e-01 -1.47220078e+00
5.58720311e+00 -3.96062024e+00 1.23101581e+00 -3.96062024e+00 7.71258769e+00 3.18692500e-01 1.23101581e+00 3.18692500e-01 3.12507598e+00
7.06968379e+00 -4.30353379e+00 7.02987731e-01 -4.30353379e+00 -1.52857280e+01 -9.21999601e-01 7.02987731e-01 -9.21999601e-01 2.03156000e+00
5.95583101e+00 -9.85157728e-01 -1.50868389e+00 -9.85157728e-01 5.68303426e+00 2.10538302e-01 -1.50868389e+00 2.10538302e-01 -2.90535808e-01
3.12438391e+00 -1.82085188e+00 1.05681752e+00 -1.82085188e+00 -3.76297963e+00 -6.68775700e-01 1.05681752e+00 -6.68775700e-01 -2.95575018e+01
1.78665066e+00 -1.34253943e+00 8.38015545e-02 -1.34253943e+00 -5.56504494e+00 -1.16437133e-02 8.38015545e-02 -1.16437133e-02 -3.31492424e+01
5.14756773e+00 -1.44426682e+00 2.35195918e-01 -1.44426682e+00 3.36233556e-01 8.75984414e-01 2.35195918e-01 8.75984414e-01 -2.33665385e+01
3.24136028e+00 -4.18386914e-01 -2.69458823e-01 -4.18386914e-01 -2.73183158e+00 1.02070571e+00 -2.69458823e-01 1.02070571e+00 -2.86571712e+01
5.85832912e+00 -1.19824681e+00 7.15134859e-01 -1.19824681e+00 1.08262071e+00 -3.25684178e+00 7.15134859e-01 -3.25684178e+00 -2.12356362e+01
7.14043736e+00 -2.74752092e+00 -3.20506585e-01 -2.74752092e+00 4.79717782e+00 1.85387535e+00 -3.20506585e-01 1.85387535e+00 -1.57335928e+01
1.11168215e+01 1.24050856e-01 6.07590668e-01 1.24050856e-01 1.15588605e+01 -3.97619501e+00 6.07590668e-01 -3.97619501e+00 -1.51155400e+00
4.75570941e+00 -6.79095586e-01 -1.20448015e+00 -6.79095586e-01 3.85644845e+00 4.66468209e+00 -1.20448015e+00 4.66468209e+00 -1.73525328e+01
4.29294419e+00 2.33124262e+00 -7.17738830e-01 2.33124262e+00 9.29743469e+00 -3.94930601e+00 -7.17738830e-01 -3.94930601e+00 7.43023872e-01
8.16375607e+00 3.07307780e+00 5.62232792e-01 3.07307780e+00 -4.52949464e-01 3.44907022e+00 5.62232792e-01 3.44907022e+00 1.60354875e-01
-1.34838027e+00 5.04707519e-01 1.77829977e-01 5.04707519e-01 3.77928829e+00 1.47840792e+00 1.77829977e-01 1.47840792e+00 9.25896347e-01
1.42251862e+00 1.10474682e+00 -4.56298369e-01 1.10474682e+00 1.14142479e+00 -7.33918334e-01 -4.56298369e-01 -7.33918334e-01 -9.28982854e-02
2.19522256e+00 5.79271674e-01 -1.07620603e+00 5.79271674e-01 -6.34293711e+00 7.10493475e-01 -1.07620603e+00 7.10493475e-01 -6.02846742e-01
1.60943565e+00 -1.54047489e-01 -4.97538887e-01 -1.54047489e-01 -6.15711339e+00 -2.63534983e-02 -4.97538887e-01 -2.63534983e-02 9.99685109e-01
-3.12209964e+00 -1.97712271e+00 -1.96504727e-01 -1.97712271e+00 -9.36897135e+00 -8.62477124e-01 -1.96504727e-01 -8.62477124e-01 -4.27143602e+01
-3.18432331e+00 -5.43674946e-01 9.87836540e-01 -5.43674946e-01 -1.19572392e+01 -1.22420099e-02 9.87836540e-01 -1.22420099e-02 -4.53609962e+01
-1.31541213e+00 -9.00716946e-01 1.54911399e-01 -9.00716946e-01 -6.27549952e+00 -9.51025642e-01 1.54911399e-01 -9.51025642e-01 -3.76329627e+01
-2.18189889e+00 -1.66810691e+00 -4.29402009e-01 -1.66810691e+00 -7.18591094e+00 9.65628147e-01 -4.29402009e-01 9.65628147e-01 -3.97366199e+01
-6.18847394e+00 -3.09068322e+00 3.84618556e+00 -3.09068322e+00 -6.62300110e+00 -5.05519676e+00 3.84618556e+00 -5.05519676e+00 -4.14331474e+01
-4.95949298e+00 -3.15380971e+00 1.09098050e+00 -3.15380971e+00 -2.80360013e+00 1.22329041e+00 1.09098050e+00 1.22329041e+00 -3.78521914e+01
5.08981514e+00 -1.08610582e+00 7.48179829e+00 -1.08610582e+00 9.14707029e+00 -1.42356777e+00 7.48179829e+00 -1.42356777e+00 -1.48897548e+01
-1.31788832e+01 -5.37765503e+00 3.71844010e+00 -5.37765503e+00 -7.51821216e+00 1.03952360e+01 3.71844010e+00 1.03952360e+01 -4.55852407e+01
-1.75183225e+01 -3.62898088e+00 3.13603228e+00 -3.62898088e+00 9.81997514e+00 -8.72642279e-01 3.13603228e+00 -8.72642279e-01 5.62002766e+00
-1.18623695e+01 -5.90346742e+00 5.53271161e-01 -5.90346742e+00 -2.11650777e+00 3.11293936e+00 5.53271161e-01 3.11293936e+00 -2.42547369e+00
-9.28727269e+00 1.23936963e+00 6.39111370e-01 1.23936963e+00 2.60326833e+00 7.16103524e-01 6.39111370e-01 7.16103524e-01 4.36815241e+00
-3.80091850e+00 3.34716082e-01 7.75083303e-01 3.34716082e-01 5.67978005e-01 -9.60628947e-01 7.75083303e-01 -9.60628947e-01 1.14119119e+00
-2.32799649e+00 2.15389752e+00 -7.53312945e-01 2.15389752e+00 -3.25677109e+00 5.21430016e-01 -7.53312945e-01 5.21430016e-01 3.99778664e-01
-2.22960961e+00 5.87441862e-01 5.59058622e-01 5.87441862e-01 -1.78596228e+00 5.59997618e-01 5.59058622e-01 5.59997618e-01 8.51564795e-01
-2.41278458e+00 -2.53995042e-03 3.72977126e-02 -2.53995042e-03 1.57497597e+00 -9.15265471e-01 3.72977126e-02 -9.15265471e-01 -3.06405945e+01
-1.60404360e+00 -1.21102000e-01 7.74379432e-01 -1.21102000e-01 1.19684827e+00 -5.45630557e-01 7.74379432e-01 -5.45630557e-01 -3.02813482e+01
-1.56791590e-01 -7.99636502e-01 5.15360823e-01 -7.99636502e-01 3.36460572e+00 -1.93003990e-01 5.15360823e-01 -1.93003990e-01 -2.62029957e+01
-2.80539559e+00 -1.08731847e-01 5.54569036e-01 -1.08731847e-01 2.07873534e+00 -1.98510874e-01 5.54569036e-01 -1.98510874e-01 -3.02948046e+01
2.41737610e+00 -9.56949472e-01 4.77845289e-01 -9.56949472e-01 2.69224018e+00 1.07424300e-01 4.77845289e-01 1.07424300e-01 -2.45079349e+01
2.03083998e+00 -1.05466697e+00 -1.42592438e-01 -1.05466697e+00 3.36357544e+00 -1.30779837e+00 -1.42592438e-01 -1.30779837e+00 -2.37869245e+01
4.00174586e+00 5.40907914e-02 7.41429394e-02 5.40907914e-02 2.55110243e+00 -4.65142645e-01 7.41429394e-02 -4.65142645e-01 -2.29044793e+01
2.87658774e+00 -6.93716018e-01 -2.95995474e-01 -6.93716018e-01 2.44847903e+00 -2.14562786e-01 -2.95995474e-01 -2.14562786e-01 -2.40219214e+01
3.17757654e+00 -4.61473130e-01 1.11185890e+00 -4.61473130e-01 1.07820213e-01 -6.75421610e-01 1.11185890e+00 -6.75421610e-01 -2.63022101e+01
1.43514681e+00 -5.29501800e-01 1.43978086e-01 -5.29501800e-01 1.50775722e+00 9.29474356e-01 1.43978086e-01 9.29474356e-01 -2.66786213e+01
5.12554982e+00 -5.64262562e-01 1.33648036e+00 -5.64262562e-01 3.66519797e+00 -5.22448570e-02 1.33648036e+00 -5.22448570e-02 -2.03703447e+01
2.85038616e+00 -2.23379364e-01 9.04249094e-01 -2.23379364e-01 1.93759009e+00 4.30591874e-01 9.04249094e-01 4.30591874e-01 -2.47503214e+01
7.09445810e+00 9.29595381e-01 1.04078484e+00 9.29595381e-01 7.36249971e+00 3.85776630e-01 1.04078484e+00 3.85776630e-01 -1.44555812e+01
6.31710124e+00 4.26310554e-01 -1.56945631e-01 4.26310554e-01 5.21740103e+00 -1.50861930e-01 -1.56945631e-01 -1.50861930e-01 -1.74990703e+01
1.72987903e+00 -1.08680621e+00 9.19262448e-01 -1.08680621e+00 5.12948483e+00 -1.31213406e+00 9.19262448e-01 -1.31213406e+00 -2.21310076e+01
-1.54552701e+00 -8.18064183e-01 2.33969024e+00 -8.18064183e-01 3.45591971e+00 -7.61867642e-01 2.33969024e+00 -7.61867642e-01 -2.70105884e+01
-1.10049072e+01 -9.47314473e-01 2.86104480e+00 -9.47314473e-01 -7.21933437e+00 -4.48184013e-01 2.86104480e+00 -4.48184013e-01 -4.97168093e+01
-3.15288618e+01 -3.69738400e+00 1.02343668e+01 -3.69738400e+00 -2.97144218e+01 6.82946390e-01 1.02343668e+01 6.82946390e-01 -8.98906284e+01
-2.20507617e+01 -2.04236284e-01 1.98322424e+00 -2.04236284e-01 -1.79140410e+01 2.73686104e+00 1.98322424e+00 2.73686104e+00 -7.27110577e+01
-2.50964179e+01 -2.03692324e-01 3.78734398e+00 -2.03692324e-01 -2.06717657e+01 5.16786051e+00 3.78734398e+00 5.16786051e+00 -7.77622671e+01
-2.68483601e+01 -1.48042291e+00 1.32574022e+00 -1.48042291e+00 -2.03731256e+01 5.25635442e+00 1.32574022e+00 5.25635442e+00 -7.92789574e+01
6.64059374e+00 5.88682853e-02 2.64331980e+00 5.88682853e-02 9.43039015e+00 -9.81459058e-01 2.64331980e+00 -9.81459058e-01 -1.18192272e+01
4.05201340e+00 -3.88933033e-01 1.89564735e+00 -3.88933033e-01 6.74849713e+00 -6.02109626e-01 1.89564735e+00 -6.02109626e-01 -1.79078965e+01
-1.66530836e+01 -1.19392677e+00 6.20614052e+00 -1.19392677e+00 -1.15873625e+01 8.56311722e+00 6.20614052e+00 8.56311722e+00 -5.51530819e+01
-1.36573396e+01 -4.05317628e+00 3.58751774e+00 -4.05317628e+00 -5.64593381e+00 9.19235945e+00 3.58751774e+00 9.19235945e+00 -1.96944094e+00
7.05053467e+00 3.59744951e-02 2.44437952e+00 3.59744951e-02 5.35595540e+00 1.29849191e+00 2.44437952e+00 1.29849191e+00 -1.50978581e+01
7.10649544e+00 7.18189299e-01 1.62023857e+00 7.18189299e-01 6.53841439e+00 1.57877949e+00 1.62023857e+00 1.57877949e+00 -1.50444503e+01
1.59321191e+01 -3.00410983e+00 2.12636467e+00 -3.00410983e+00 1.51842797e+01 1.71160685e+00 2.12636467e+00 1.71160685e+00 5.49759998e+00
2.44285915e+01 -1.46606712e+00 -6.29553763e+00 -1.46606712e+00 2.56340582e+01 -1.38638727e+00 -6.29553763e+00 -1.38638727e+00 2.12837510e+01
5.89577819e+00 -9.43176971e-01 4.10666317e-01 -9.43176971e-01 4.24256027e+00 9.19525300e-01 4.10666317e-01 9.19525300e-01 -1.82457330e+01
8.54588902e+00 -7.92601392e-01 3.73012856e-01 -7.92601392e-01 6.30439186e+00 8.85558620e-01 3.73012856e-01 8.85558620e-01 -1.36172428e+01
1.11770388e+00 -2.29440660e+00 7.07915209e-01 -2.29440660e+00 5.79872668e-01 2.29629846e+00 7.07915209e-01 2.29629846e+00 -2.63039877e+01
-6.56860518e+00 4.55719054e-01 -2.73220291e+00 4.55719054e-01 -7.26733470e+00 4.38767748e+00 -2.73220291e+00 4.38767748e+00 -4.45011170e+01
1.35469609e+00 -2.23345431e-01 -5.77366493e-01 -2.23345431e-01 3.19572353e+00 -4.07963499e-01 -5.77366493e-01 -4.07963499e-01 -2.51728973e+01
9.19463396e-01 3.68696332e-01 3.15974951e-02 3.68696332e-01 8.54726076e-01 5.24586141e-01 3.15974951e-02 5.24586141e-01 -2.79990811e+01
-4.42910981e+00 4.69715584e-01 1.05578642e+00 4.69715584e-01 -5.75675964e-02 -4.93655775e-01 1.05578642e+00 -4.93655775e-01 -3.46872854e+01
-4.25616398e+01 4.01745439e-02 -4.82639335e-01 4.01745439e-02 -3.79377346e+01 4.29246140e+00 -4.82639335e-01 4.29246140e+00 -1.18014473e+02
1.13254353e-01 -6.14845991e-01 -1.51817426e-02 -6.14845991e-01 -1.22439861e-02 -1.01974970e-01 -1.51817426e-02 -1.01974970e-01 -5.26243076e-01
-2.22802147e-01 -4.10948709e-01 -2.34554231e-01 -4.10948709e-01 1.04316872e-01 -7.78023899e-02 -2.34554231e-01 -7.78023899e-02 -3.06764979e-01
2.88358385e-01 -1.84602737e-01 2.51367025e-01 -1.84602737e-01 2.07579341e-01 2.97566226e-01 2.51367025e-01 2.97566226e-01 -9.21159744e-01
1.98605032e-01 -3.88568938e-01 -1.53775424e-01 -3.88568938e-01 -3.34778804e-01 -2.88192540e-01 -1.53775424e-01 -2.88192540e-01 -2.89132297e-01
-2.29286671e-01 6.14376366e-03 1.22359782e+00 6.14376366e-03 3.57996345e-01 -1.67765521e-01 1.22359782e+00 -1.67765521e-01 -2.98292103e+01
2.55466849e-01 1.84652667e-01 7.36265019e-01 1.84652667e-01 4.05545533e-02 3.70847553e-01 7.36265019e-01 3.70847553e-01 -2.96316953e+01
1.43778840e+00 -1.10716575e+00 1.20726372e+00 -1.10716575e+00 1.88682706e+00 4.49153131e-01 1.20726372e+00 4.49153131e-01 -2.61757467e+01
-6.41637981e-01 1.41696084e-01 1.23892360e+00 1.41696084e-01 8.07313517e-01 -6.90804332e-01 1.23892360e+00 -6.90804332e-01 -2.97461910e+01
3.26496306e+00 -1.25069778e+00 7.91382492e-01 -1.25069778e+00 9.15867805e-01 1.37462283e-01 7.91382492e-01 1.37462283e-01 -2.53210673e+01
3.79815562e+00 -1.53649100e+00 1.37400567e+00 -1.53649100e+00 2.56346035e+00 9.22213938e-01 1.37400567e+00 9.22213938e-01 -2.26062669e+01
5.58203578e+00 1.35694671e-01 2.62311801e-01 1.35694671e-01 1.75514260e+00 8.33218455e-01 2.62311801e-01 8.33218455e-01 -2.17402468e+01
6.27931380e+00 -5.63020539e-01 -1.00572897e-01 -5.63020539e-01 3.37615494e+00 -1.95367164e-01 -1.00572897e-01 -1.95367164e-01 -1.92462018e+01
7.89431652e+00 3.05868160e-01 -4.28462312e-01 3.05868160e-01 3.67749339e+00 8.68663508e-02 -4.28462312e-01 8.68663508e-02 -1.71146389e+01
9.35548648e-01 3.66623877e-01 -9.74382028e-01 3.66623877e-01 -1.63218051e+00 1.03983620e-01 -9.74382028e-01 1.03983620e-01 -3.04103016e+01
1.04622391e+01 1.15375883e-01 3.32088396e-01 1.15375883e-01 7.43296584e+00 -4.39712752e-01 3.32088396e-01 -4.39712752e-01 -1.04317212e+01