<VTKFile type="UnstructuredGrid" version="0.1" byte_order="LittleEndian">
<UnstructuredGrid>
<Piece NumberOfPoints="173" NumberOfCells="80">
<Points>
<DataArray type="Float64" NumberOfComponents="3" format="ascii">
 0.00000000e+00  0.00000000e+00  0.00000000e+00
 1.04681170e+00  0.00000000e+00  0.00000000e+00
 1.04990625e+00  1.08332479e+00  0.00000000e+00
 0.00000000e+00  1.08039069e+00  0.00000000e+00
 0.00000000e+00  0.00000000e+00  9.01545048e-01
 1.04592586e+00  0.00000000e+00  8.97838056e-01
 1.04693687e+00  1.07779169e+00  9.02533531e-01
 0.00000000e+00  1.07665396e+00  9.04277861e-01
 2.09796953e+00  0.00000000e+00  0.00000000e+00
 2.09924912e+00  1.08932388e+00  0.00000000e+00
 2.09548402e+00  0.00000000e+00  8.91384125e-01
 2.09793162e+00  1.08118534e+00  8.96746516e-01
 3.15025020e+00  0.00000000e+00  0.00000000e+00
 3.15516162e+00  1.09781504e+00  0.00000000e+00
 3.15610933e+00  0.00000000e+00  8.85667145e-01
 3.15016770e+00  1.08408833e+00  8.86039078e-01
 4.21953678e+00  0.00000000e+00  0.00000000e+00
 4.20648623e+00  1.10394466e+00  0.00000000e+00
 4.22366905e+00  0.00000000e+00  8.77107978e-01
 4.20903301e+00  1.08441687e+00  8.80160213e-01
 5.28622198e+00  0.00000000e+00  0.00000000e+00
 5.27098608e+00  1.11116278e+00  0.00000000e+00
 5.29255152e+00  0.00000000e+00  8.68863702e-01
 5.28108263e+00  1.08743715e+00  8.74173403e-01
 6.36099577e+00  0.00000000e+00  0.00000000e+00
 6.31804848e+00  1.13772559e+00  0.00000000e+00
 6.35754871e+00  0.00000000e+00  8.67819488e-01
 6.34697437e+00  1.11264217e+00  8.62110794e-01
 1.05422413e+00  2.14936972e+00  0.00000000e+00
 0.00000000e+00  2.14696741e+00  0.00000000e+00
 1.04997098e+00  2.14454746e+00  9.14232194e-01
 0.00000000e+00  2.14083409e+00  9.15040076e-01
 2.10776114e+00  2.16188288e+00  0.00000000e+00
 2.09896994e+00  2.15172434e+00  9.12846327e-01
 3.15144968e+00  2.17281842e+00  0.00000000e+00
 3.14456177e+00  2.16010785e+00  9.21469092e-01
 4.18787336e+00  2.19503284e+00  0.00000000e+00
 4.19077635e+00  2.15887594e+00  9.18483973e-01
 5.21194696e+00  2.19558501e+00  0.00000000e+00
 5.22866154e+00  2.16396332e+00  9.23280895e-01
 6.24652767e+00  2.23446369e+00  0.00000000e+00
 6.27422523e+00  2.19983172e+00  9.23664629e-01
 1.05786657e+00  3.19066739e+00  0.00000000e+00
 0.00000000e+00  3.18725681e+00  0.00000000e+00
 1.05208075e+00  3.19187737e+00  9.29274976e-01
 0.00000000e+00  3.18988371e+00  9.30670619e-01
 2.11645222e+00  3.19322681e+00  0.00000000e+00
 2.10623646e+00  3.19442487e+00  9.43661273e-01
 3.14887547e+00  3.20216274e+00  0.00000000e+00
 3.14199090e+00  3.19936085e+00  9.83701825e-01
 4.15577936e+00  3.20915484e+00  0.00000000e+00
 4.14683580e+00  3.19740486e+00  1.00658226e+00
 5.17218971e+00  3.20125866e+00  0.00000000e+00
 5.17436695e+00  3.17874360e+00  1.01588035e+00
 6.17471886e+00  3.24258804e+00  0.00000000e+00
 6.18192482e+00  3.23940897e+00  1.00498688e+00
 1.06049287e+00  4.21334696e+00  0.00000000e+00
 0.00000000e+00  4.21814537e+00  0.00000000e+00
 1.05293643e+00  4.21604395e+00  9.38356757e-01
 0.00000000e+00  4.22176170e+00  9.36515570e-01
 2.11592817e+00  4.20893335e+00  0.00000000e+00
 2.10363412e+00  4.20472622e+00  9.56530273e-01
 3.14389133e+00  4.20197058e+00  0.00000000e+00
 3.13499784e+00  4.20064497e+00  9.91788507e-01
 4.14043236e+00  4.20789719e+00  0.00000000e+00
 4.14005232e+00  4.20789242e+00  9.99960661e-01
 6.14034843e+00  4.21094084e+00  0.00000000e+00
 5.14040565e+00  4.20923996e+00  0.00000000e+00
 6.14047194e+00  4.21097326e+00  9.99726474e-01
 5.14046907e+00  4.20917654e+00  1.00001752e+00
 1.05831861e+00  5.23481178e+00  0.00000000e+00
 0.00000000e+00  5.24537086e+00  0.00000000e+00
 1.05496109e+00  5.24263573e+00  9.36065316e-01
 0.00000000e+00  5.24717093e+00  9.28542733e-01
 2.11390662e+00  5.21644592e+00  0.00000000e+00
 2.09725857e+00  5.22017050e+00  9.49709117e-01
 3.13513541e+00  5.20322657e+00  0.00000000e+00
 3.12820363e+00  5.20772362e+00  9.87329602e-01
 4.13905525e+00  5.20798779e+00  0.00000000e+00
 4.13881588e+00  5.20800257e+00  1.00024390e+00
 5.13890076e+00  5.20934629e+00  0.00000000e+00
 5.13899517e+00  5.20932579e+00  1.00002861e+00
 6.13901949e+00  5.21070004e+00  0.00000000e+00
 6.13903618e+00  5.21063519e+00  1.00000799e+00
 1.06588411e+00  6.27200031e+00  0.00000000e+00
 0.00000000e+00  6.27684784e+00  0.00000000e+00
 1.05924761e+00  6.27348089e+00  9.22418475e-01
 0.00000000e+00  6.28407812e+00  9.15959537e-01
 2.12246871e+00  6.24071550e+00  0.00000000e+00
 2.10070753e+00  6.26072788e+00  9.28248167e-01
 3.14153051e+00  6.21496725e+00  0.00000000e+00
 3.13389039e+00  6.23239470e+00  9.67227817e-01
 4.13872290e+00  6.20862341e+00  0.00000000e+00
 4.13805389e+00  6.20865250e+00  1.00053704e+00
 5.13771582e+00  6.20919895e+00  0.00000000e+00
 5.13782644e+00  6.20928431e+00  9.99966562e-01
 6.13768053e+00  6.21065855e+00  0.00000000e+00
 6.13770676e+00  6.21062994e+00  9.99995112e-01
 0.00000000e+00  0.00000000e+00  1.81104302e+00
 1.04616082e+00  0.00000000e+00  1.80363810e+00
 1.04557657e+00  1.06561053e+00  1.81133091e+00
 0.00000000e+00  1.06640255e+00  1.81217432e+00
 2.10291100e+00  0.00000000e+00  1.79420972e+00
 2.09243464e+00  1.05874360e+00  1.79898548e+00
 3.15958500e+00  0.00000000e+00  1.78220797e+00
 3.15957975e+00  1.05837464e+00  1.78114712e+00
 4.23268747e+00  0.00000000e+00  1.76328850e+00
 4.22682810e+00  1.05877459e+00  1.77519965e+00
 5.30797148e+00  0.00000000e+00  1.75042534e+00
 5.30035543e+00  1.06082392e+00  1.76377451e+00
 6.36804819e+00  0.00000000e+00  1.74519527e+00
 6.38063717e+00  1.06905460e+00  1.75297451e+00
 1.03988814e+00  2.12874079e+00  1.82869756e+00
 0.00000000e+00  2.13552427e+00  1.83378887e+00
 2.08959937e+00  2.12780333e+00  1.82198584e+00
 3.14386606e+00  2.13214040e+00  1.81732404e+00
 4.21630144e+00  2.14766383e+00  1.79873490e+00
 5.29110527e+00  2.15001774e+00  1.80508387e+00
 6.35612583e+00  2.16157413e+00  1.79277873e+00
 1.03515255e+00  3.18672085e+00  1.85778379e+00
 0.00000000e+00  3.18983364e+00  1.86278987e+00
 2.07616067e+00  3.18844771e+00  1.87184381e+00
 3.06773114e+00  3.16098619e+00  2.01119375e+00
 1.03754902e+00  4.23489952e+00  1.88381827e+00
 0.00000000e+00  4.22869873e+00  1.87418222e+00
 2.08304501e+00  4.21413231e+00  1.91449285e+00
 3.10652089e+00  4.18052197e+00  1.96236205e+00
 1.04666960e+00  5.25485039e+00  1.87460804e+00
 0.00000000e+00  5.26281738e+00  1.86714041e+00
 2.07761788e+00  5.24190187e+00  1.89737177e+00
 3.13130426e+00  5.22366810e+00  1.92088294e+00
 1.04126048e+00  6.29978085e+00  1.84300542e+00
 0.00000000e+00  6.29880047e+00  1.83706403e+00
 2.07939458e+00  6.30627441e+00  1.85187483e+00
 3.14250851e+00  6.29238367e+00  1.85534012e+00
 5.13903093e+00  5.20936918e+00  2.00003386e+00
 6.13903189e+00  5.21065140e+00  2.00003195e+00
 6.13774776e+00  6.21065998e+00  1.99998271e+00
 5.13772011e+00  6.20938396e+00  1.99996555e+00
 0.00000000e+00  0.00000000e+00  2.71846485e+00
 1.05360723e+00  0.00000000e+00  2.71648097e+00
 1.05689669e+00  1.05892682e+00  2.72235513e+00
 0.00000000e+00  1.05665541e+00  2.72762537e+00
 2.11905622e+00  0.00000000e+00  2.70202255e+00
 2.10643244e+00  1.05075729e+00  2.71112442e+00
 3.17712069e+00  0.00000000e+00  2.68613935e+00
 3.17832327e+00  1.04607677e+00  2.69009137e+00
 4.24702978e+00  0.00000000e+00  2.67249918e+00
 4.25006247e+00  1.04778600e+00  2.66749907e+00
 5.32092142e+00  0.00000000e+00  2.65580130e+00
 5.32124090e+00  1.05069244e+00  2.65808249e+00
 6.38936043e+00  0.00000000e+00  2.65060544e+00
 6.38872766e+00  1.05174720e+00  2.65209413e+00
 1.04044318e+00  2.11154151e+00  2.74384165e+00
 0.00000000e+00  2.12673712e+00  2.74731112e+00
 2.10656190e+00  2.11382556e+00  2.72203732e+00
 3.16754198e+00  2.12039232e+00  2.67855334e+00
 4.24486303e+00  2.13290310e+00  2.66724181e+00
 5.31487036e+00  2.12548113e+00  2.66981244e+00
 6.37496996e+00  2.13391638e+00  2.66422367e+00
 1.03644538e+00  3.19074583e+00  2.78896332e+00
 0.00000000e+00  3.18743396e+00  2.78505468e+00
 2.09582973e+00  3.16759682e+00  2.75746012e+00
 1.03702807e+00  4.23642683e+00  2.82245946e+00
 0.00000000e+00  4.24516106e+00  2.81451988e+00
 2.08618069e+00  4.23698330e+00  2.85812640e+00
 1.03790522e+00  5.29376554e+00  2.80779362e+00
 0.00000000e+00  5.28722286e+00  2.80332661e+00
 2.08297372e+00  5.28890753e+00  2.81904387e+00
 3.10079575e+00  4.29396868e+00  3.02228498e+00
 3.12547970e+00  5.27993870e+00  2.79594374e+00
 1.04146302e+00  6.33813667e+00  2.76982975e+00
 0.00000000e+00  6.34268665e+00  2.75821471e+00
</DataArray>
</Points>
<PointData Tensors="Stress_Components,Plastic_strain_components" Vevtors="Spatial_displacement,Reaction_force" Scalars="Equivalent_plastic_strain,Stress_Mises,Stress_Max_Principal,Stress_Mid_Principal,Stress_Min_Principal,Stress_Pressure,Stress_Tresca,Stress_Third_Invariant,Plastic_strain_Max_Principal,Plastic_strain_Min_Principal">
<DataArray type="Float32" Name="Stress_Components" NumberOfComponents="9" format="ascii">
-3.11596942e+00 -1.10292193e-02 -1.21325739e-02 -1.10292193e-02 3.55601609e-01 8.33874382e-03 -1.21325739e-02 8.33874382e-03 -3.27906227e+01
-9.19659334e+00 2.14759082e-01 -5.74392546e-03 2.14759082e-01 -4.91224670e+00 -2.52246439e-01 -5.74392546e-03 -2.52246439e-01 -4.50177288e+01
-4.34164035e+00 4.11661010e-01 -3.61275718e-01 4.11661010e-01 -1.79049385e+00 -3.15531854e-01 -3.61275718e-01 -3.15531854e-01 -3.65066322e+01
-5.66119051e+00 8.93059075e-02 -3.81380871e-01 8.93059075e-02 -3.33561492e+00 1.71760893e-02 -3.81380871e-01 1.71760893e-02 -3.96449366e+01
-1.04572690e+00 -6.81048539e-03 -8.99228193e-02 -6.81048539e-03 2.12780523e+00 -2.19760969e-01 -8.99228193e-02 -2.19760969e-01 -2.86560898e+01
-6.18068600e+00 1.27537083e-01 3.35926924e-01 1.27537083e-01 -2.40158999e+00 -5.58960240e-01 3.35926924e-01 -5.58960240e-01 -3.90595572e+01
-2.88054470e+00 3.04134768e-01 -1.43751910e-01 3.04134768e-01 -3.56925979e-01 -3.19313455e-01 -1.43751910e-01 -3.19313455e-01 -3.33819693e+01
-4.71308804e+00 9.79286106e-02 -2.77946286e-01 9.79286106e-02 -2.17233133e+00 1.85674593e-01 -2.77946286e-01 1.85674593e-01 -3.73327014e+01
-1.17802200e+01 1.89112909e-01 -1.75698670e-02 1.89112909e-01 -6.80346346e+00 -4.50378522e-01 -1.75698670e-02 -4.50378522e-01 -4.97927923e+01
-1.28728104e+01 9.09126045e-01 -6.26080833e-01 9.09126045e-01 -8.68488920e+00 -4.72721165e-01 -6.26080833e-01 -4.72721165e-01 -5.30506489e+01
-7.69549716e+00 1.44210462e-01 3.94976716e-01 1.44210462e-01 -4.38098657e+00 -6.48111664e-02 3.94976716e-01 -6.48111664e-02 -4.29469247e+01
-7.23790400e+00 2.58620093e-01 -7.66763225e-01 2.58620093e-01 -3.72465092e+00 -1.13132217e+00 -7.66763225e-01 -1.13132217e+00 -4.15943925e+01
-1.46107571e+01 5.51898956e-01 -7.02638822e-02 5.51898956e-01 -9.73034298e+00 4.18144301e-01 -7.02638822e-02 4.18144301e-01 -5.60868950e+01
-2.11708889e+01 5.94426692e-01 -1.28394465e+00 5.94426692e-01 -1.49471548e+01 -1.20359503e+00 -1.28394465e+00 -1.20359503e+00 -6.86422207e+01
-6.77647650e+00 -5.08781590e-01 -6.28929131e-01 -5.08781590e-01 -4.89321876e+00 -5.26023130e-02 -6.28929131e-01 -5.26023130e-02 -4.25875022e+01
-1.26612793e+01 -4.38033844e-01 -3.94848334e-01 -4.38033844e-01 -8.00647289e+00 -9.11767969e-01 -3.94848334e-01 -9.11767969e-01 -5.19992942e+01
-1.91913471e+01 -1.43110335e+00 -1.03847865e-01 -1.43110335e+00 -1.50187273e+01 1.33159816e-01 -1.03847865e-01 1.33159816e-01 -6.67983532e+01
-3.05080600e+01 -1.35979661e+00 -2.48210284e+00 -1.35979661e+00 -1.91852471e+01 -1.79044265e-01 -2.48210284e+00 -1.79044265e-01 -8.24994545e+01
-8.36639667e+00 -1.34843726e+00 -3.01573973e-01 -1.34843726e+00 -7.22313643e+00 -1.08859394e-01 -3.01573973e-01 -1.08859394e-01 -4.68035328e+01
3.52501929e-01 -1.00157174e+00 -5.49956569e-01 -1.00157174e+00 1.64704940e+00 2.92263494e-01 -5.49956569e-01 2.92263494e-01 -2.77804704e+01
-1.94778043e+01 -4.41192724e-01 -2.14842729e-01 -4.41192724e-01 -1.32189584e+01 1.16511187e+00 -2.14842729e-01 1.16511187e+00 -6.49814644e+01
-1.23645146e+01 -3.08333323e+00 -2.08751481e+00 -3.08333323e+00 -6.81404483e+00 4.73218583e-01 -2.08751481e+00 4.73218583e-01 -4.95676851e+01
-1.22405982e+00 -5.04310369e-01 -2.46639546e-01 -5.04310369e-01 -2.01629281e-01 1.21156191e+00 -2.46639546e-01 1.21156191e+00 -3.14734831e+01
3.94233130e+00 -1.75936841e+00 -2.94364788e-01 -1.75936841e+00 4.25521891e+00 2.70135839e-01 -2.94364788e-01 2.70135839e-01 -2.09303294e+01
-4.76091995e+01 -4.67638636e+00 -2.21126646e-01 -4.67638636e+00 -3.50788727e+01 5.16341209e-01 -2.21126646e-01 5.16341209e-01 -1.18110153e+02
-6.45985909e+01 -5.21020234e+00 -2.99525166e+00 -5.21020234e+00 -3.91035872e+01 5.31856060e+00 -2.99525166e+00 5.31856060e+00 -1.37090183e+02
-2.68191894e+01 -5.63566975e-01 -1.83123988e+00 -5.63566975e-01 -1.85320982e+01 2.85055283e+00 -1.83123988e+00 2.85055283e+00 -7.81225319e+01
-2.50339651e+01 -1.76566043e+00 -1.17709899e+00 -1.76566043e+00 -1.83960812e+01 2.89749749e+00 -1.17709899e+00 2.89749749e+00 -7.56853411e+01
-1.61013746e+00 8.49343631e-01 -5.15857954e-01 8.49343631e-01 -3.66707158e+00 -4.04166565e-01 -5.15857954e-01 -4.04166565e-01 -3.55701854e+01
4.41598892e-02 1.96275577e-01 -4.89723042e-01 1.96275577e-01 -1.97622919e+00 5.75292134e-03 -4.89723042e-01 5.75292134e-03 -3.19845319e+01
-1.45726553e+00 5.20031646e-01 3.01025799e-02 5.20031646e-01 -1.74997143e+00 -7.26926102e-01 3.01025799e-02 -7.26926102e-01 -3.34347568e+01
1.59845209e+00 1.81637149e-01 8.13796094e-01 1.81637149e-01 1.05801129e+00 5.36245555e-02 8.13796094e-01 5.36245555e-02 -2.71003560e+01
-6.43219066e+00 2.65854864e+00 -8.61250445e-01 2.65854864e+00 -9.07741284e+00 -1.16913122e+00 -8.61250445e-01 -1.16913122e+00 -4.61875098e+01
-4.64761582e+00 2.04318754e+00 1.78462229e+00 2.04318754e+00 -5.59676837e+00 -3.22316164e-01 1.78462229e+00 -3.22316164e-01 -4.00576380e+01
2.03010130e+01 1.33111739e+00 -1.63417470e+00 1.33111739e+00 1.86741018e+01 -5.17367974e-01 -1.63417470e+00 -5.17367974e-01 1.10322997e+01
5.84733800e+00 1.68015126e+00 3.79991882e+00 1.68015126e+00 6.95698581e+00 -2.92803258e-01 3.79991882e+00 -2.92803258e-01 -1.67471951e+01
3.04679325e+01 -8.02298389e-01 -4.59327270e+00 -8.02298389e-01 2.49442834e+01 -1.85734960e-01 -4.59327270e+00 -1.85734960e-01 2.89113497e+01
-1.51461450e+01 -6.85793956e+00 8.73142546e+00 -6.85793956e+00 -1.14779000e+01 5.22351761e-01 8.73142546e+00 5.22351761e-01 -5.34224774e+01
2.96786647e+01 1.08765557e+00 -3.88967919e+00 1.08765557e+00 2.88117126e+01 2.34143278e-01 -3.88967919e+00 2.34143278e-01 3.08284283e+01
-3.82704528e+00 -5.01678163e+00 9.31317220e+00 -5.01678163e+00 -9.08688752e+00 2.53624930e+00 9.31317220e+00 2.53624930e+00 -3.60577270e+01
1.73647175e+01 -5.01737797e+00 -6.95800042e+00 -5.01737797e+00 6.03555107e+00 1.78904694e+00 -6.95800042e+00 1.78904694e+00 -3.57612228e+00
-4.19393984e+01 -1.19654158e+01 1.22501363e+01 -1.19654158e+01 -3.31966667e+01 5.82046632e+00 1.22501363e+01 5.82046632e+00 -1.01133886e+02
-1.14515305e-01 6.28252633e-01 1.68194130e-01 6.28252633e-01 -9.28430462e+00 -8.24789062e-01 1.68194130e-01 -8.24789062e-01 -3.88686624e+01
7.22265863e+00 2.63265438e-01 2.86395520e-01 2.63265438e-01 2.70108557e+00 2.10351869e-03 2.86395520e-01 2.10351869e-03 -1.88554115e+01
2.75267597e+00 1.01403829e-01 1.00582902e+00 1.01403829e-01 -4.08373496e+00 -6.29835656e-01 1.00582902e+00 -6.29835656e-01 -3.06405953e+01
7.35782403e+00 9.21613816e-02 8.19714963e-01 9.21613816e-02 4.45782042e+00 -3.10115229e-01 8.19714963e-01 -3.10115229e-01 -1.69680194e+01
1.72138693e+01 -1.87628508e-01 -7.73554668e-02 -1.87628508e-01 9.70331353e+00 -1.13382437e+00 -7.73554668e-02 -1.13382437e+00 -2.42633343e-01
1.56512086e+01 -1.64735533e-01 1.05381041e+00 -1.64735533e-01 5.34855223e+00 1.59154200e+00 1.05381041e+00 1.59154200e+00 -6.75723326e+00
3.00882807e+01 -3.70827591e-01 9.79493558e-02 -3.70827591e-01 2.82162983e+01 -2.33340025e+00 9.79493558e-02 -2.33340025e+00 3.18481178e+01
2.90334996e+01 -1.85737241e+00 -3.37130358e-01 -1.85737241e+00 2.63314018e+01 2.86848352e+00 -3.37130358e-01 2.86848352e+00 3.12140659e+01
2.33781722e+01 -2.63904697e+00 -2.55236626e-01 -2.63904697e+00 2.16304590e+01 -2.50340219e+00 -2.55236626e-01 -2.50340219e+00 2.90906868e+01
3.22545013e+01 6.59592470e-01 -1.03819086e+01 6.59592470e-01 3.32809424e+01 3.77795078e+00 -1.03819086e+01 3.77795078e+00 5.22534571e+01
3.35027097e+01 -1.02912554e+00 3.48975897e+00 -1.02912554e+00 3.46015422e+01 -4.07481941e-01 3.48975897e+00 -4.07481941e-01 3.43154964e+01
2.68667091e+01 4.95347261e+00 -9.73191484e+00 4.95347261e+00 3.53399464e+01 -1.11185962e+00 -9.73191484e+00 -1.11185962e+00 4.44800464e+01
1.84072430e+01 3.36681235e+00 -5.48685551e-01 3.36681235e+00 8.33950710e+00 1.47050375e+00 -5.48685551e-01 1.47050375e+00 3.03725286e+01
4.39558239e+01 1.03069348e+01 -5.36161667e+00 1.03069348e+01 3.22762671e+01 -1.59274799e+00 -5.36161667e+00 -1.59274799e+00 6.07334394e+01
2.87680382e+00 -8.00392516e-01 2.01751230e-01 -8.00392516e-01 -8.57288629e+00 -1.19580065e+00 2.01751230e-01 -1.19580065e+00 -3.40298662e+01
2.75421512e+00 -8.19591343e-01 2.60406457e-01 -8.19591343e-01 -5.05377793e+00 -4.82400861e-02 2.60406457e-01 -4.82400861e-02 -3.14327641e+01
8.86874616e+00 -1.16791464e+00 1.32695300e+00 -1.16791464e+00 2.35468718e+00 4.22764029e-02 1.32695300e+00 4.22764029e-02 -1.65711379e+01
5.68749702e+00 -6.47246137e-01 2.51046062e-01 -6.47246137e-01 7.30864495e-01 -1.28856032e-01 2.51046062e-01 -1.28856032e-01 -2.25847453e+01
1.65607139e+01 -2.26193571e+00 -9.55003267e-01 -2.26193571e+00 1.13024424e+01 -2.16683866e+00 -9.55003267e-01 -2.16683866e+00 1.45363331e+00
1.84644898e+01 -1.02677541e+00 -7.96692781e-01 -1.02677541e+00 1.37238046e+01 2.86769950e+00 -7.96692781e-01 2.86769950e+00 7.21232438e+00
1.97557011e+01 -7.03785121e-02 5.61771953e-01 -7.03785121e-02 2.53521743e+01 -2.73040307e+00 5.61771953e-01 -2.73040307e+00 2.00600538e+01
2.82540722e+01 6.93602398e-01 -5.27953893e-01 6.93602398e-01 3.31580144e+01 -2.04397985e+00 -5.27953893e-01 -2.04397985e+00 3.35326765e+01
2.16449539e+01 1.33835735e+00 7.94526151e-01 1.33835735e+00 2.52958555e+01 -2.16960321e+00 7.94526151e-01 -2.16960321e+00 2.60668421e+01
1.41144009e+01 3.19210644e+00 3.34912221e-01 3.19210644e+00 1.08200091e+01 2.24833965e+00 3.34912221e-01 2.24833965e+00 4.20322102e+00
-1.07999499e+01 -7.70153260e+00 1.57964617e-01 -7.70153260e+00 -3.18030941e+01 1.45222947e+00 1.57964617e-01 1.45222947e+00 -1.51079292e+01
1.32987871e+01 2.48400545e+00 -7.52627701e-01 2.48400545e+00 1.90463134e+01 8.93829695e-01 -7.52627701e-01 8.93829695e-01 1.53715984e+01
7.47236013e-01 -5.90010428e+00 1.35408759e+00 -5.90010428e+00 -2.10089564e+01 -1.84776459e+00 1.35408759e+00 -1.84776459e+00 -5.06372428e+00
2.25521549e+00 -2.69850159e+00 -2.56451027e+00 -2.69850159e+00 8.99286290e+00 -7.61052305e-01 -2.56451027e+00 -7.61052305e-01 -3.09626148e+00
4.10571550e+00 -2.19823316e+00 1.11440561e+00 -2.19823316e+00 -5.01138273e+00 -4.23403710e-01 1.11440561e+00 -4.23403710e-01 -2.90925617e+01
1.67408037e+00 -1.53920940e+00 4.61961687e-01 -1.53920940e+00 -6.56252289e+00 -1.64085478e-02 4.61961687e-01 -1.64085478e-02 -3.40631431e+01
1.03655501e+01 -1.35810878e+00 8.33222274e-01 -1.35810878e+00 6.28226671e+00 2.70025712e-01 8.33222274e-01 2.70025712e-01 -1.12365754e+01
4.82029295e+00 -7.53982976e-01 -1.41848996e-03 -7.53982976e-01 -1.46479177e+00 7.88177446e-01 -1.41848996e-03 7.88177446e-01 -2.55221071e+01
1.57922187e+01 -2.22930927e+00 3.82744072e-01 -2.22930927e+00 1.02226924e+01 -2.57281831e+00 3.82744072e-01 -2.57281831e+00 -4.93252277e-02
9.87952024e+00 -2.32078484e+00 -7.23785963e-01 -2.32078484e+00 5.90621118e+00 2.66573949e+00 -7.23785963e-01 2.66573949e+00 -1.11432343e+01
1.52243930e+01 2.20565628e+00 2.82998904e+00 2.20565628e+00 1.39016718e+01 -1.63853909e+00 2.82998904e+00 -1.63853909e+00 1.88185120e+00
1.55337669e+01 -1.89093113e+00 -1.44931833e+00 -1.89093113e+00 1.32539438e+01 3.29896088e+00 -1.44931833e+00 3.29896088e+00 3.53997612e+00
1.35801552e+01 2.78558369e+00 -2.77836595e-01 2.78558369e+00 1.87305417e+01 -1.91132981e+00 -2.77836595e-01 -1.91132981e+00 2.00361090e+01
1.37174160e+01 3.07174805e+00 3.37247124e+00 3.07174805e+00 8.59160757e+00 -1.04330868e+00 3.37247124e+00 -1.04330868e+00 9.94503078e+00
-2.52347499e-01 7.50510335e-01 -3.49353764e-01 7.50510335e-01 2.55958939e+00 1.73220155e+00 -3.49353764e-01 1.73220155e+00 4.44488271e+00
3.38355815e+00 6.07566977e-01 -8.29337752e-01 6.07566977e-01 1.01647367e+00 -6.96393371e-01 -8.29337752e-01 -6.96393371e-01 2.65021515e-01
2.92992246e+00 4.22475219e-01 -1.35929269e+00 4.22475219e-01 -7.90916491e+00 3.48730266e-01 -1.35929269e+00 3.48730266e-01 -1.75436401e+00
9.69094316e-01 -1.15394525e+00 9.99141857e-01 -1.15394525e+00 -5.58499149e+00 -2.42517516e-01 9.99141857e-01 -2.42517516e-01 -2.21099337e-01
-2.26804800e+01 -2.88960110e+00 1.40308011e+00 -2.88960110e+00 -3.38312988e+01 -1.50871158e+00 1.40308011e+00 -1.50871158e+00 -8.95987473e+01
-2.02822914e+01 -1.30973041e+00 1.65753293e+00 -1.30973041e+00 -3.55597992e+01 -3.86981331e-02 1.65753293e+00 -3.86981331e-02 -8.84098587e+01
-1.02385633e+01 -1.60078941e+00 1.56913102e-02 -1.60078941e+00 -1.71747514e+01 -1.05092699e+00 1.56913102e-02 -1.05092699e+00 -5.89137611e+01
-2.09482088e+01 -1.54260921e+00 2.32062042e-01 -1.54260921e+00 -3.17728510e+01 9.60785657e-01 2.32062042e-01 9.60785657e-01 -8.59827499e+01
-3.24417167e+01 -6.93302679e+00 6.00533628e+00 -6.93302679e+00 -4.19947958e+01 -5.84431362e+00 6.00533628e+00 -5.84431362e+00 -1.07159924e+02
-1.73885955e+01 -4.48973734e+00 3.25784713e-01 -4.48973734e+00 -1.77307253e+01 2.18217999e-01 3.25784713e-01 2.18217999e-01 -6.70845776e+01
1.74848557e-01 1.98077917e-01 5.46884602e+00 1.98077917e-01 1.36635265e+01 -2.83333266e+00 5.46884602e+00 -2.83333266e+00 -1.35892258e+01
-3.91708031e+01 -9.61145945e+00 2.82308380e-01 -9.61145945e+00 -3.37780794e+01 1.28050286e+01 2.82308380e-01 1.28050286e+01 -1.03322649e+02
2.66114745e+01 3.50176364e+00 -1.25177845e+00 3.50176364e+00 3.62900233e+01 -6.07130122e+00 -1.25177845e+00 -6.07130122e+00 4.94552562e+01
-1.55203300e+01 -1.02208459e+01 2.16474444e+00 -1.02208459e+01 -1.53230944e+01 8.99687624e+00 2.16474444e+00 8.99687624e+00 -1.87808623e+01
-5.24377098e+00 -9.22599316e-01 1.30547333e+00 -9.22599316e-01 2.24316621e+00 1.78552592e+00 1.30547333e+00 1.78552592e+00 5.35448420e+00
-3.50611226e+00 -6.76541885e-01 6.52198901e-01 -6.76541885e-01 2.80711135e+00 -2.57372717e+00 6.52198901e-01 -2.57372717e+00 3.60361395e+00
-1.92619145e+00 2.50207973e+00 -5.95840693e-01 2.50207973e+00 -2.18546224e+00 5.50845265e-01 -5.95840693e-01 5.50845265e-01 -6.04065120e-01
-4.09227788e+00 3.26179892e-01 -1.96835995e-01 3.26179892e-01 6.77721739e-01 1.41078711e+00 -1.96835995e-01 1.41078711e+00 5.34972347e-01
-1.63288736e+00 3.23626166e-03 -2.00328827e-01 3.23626166e-03 1.15976191e+00 -3.84945989e-01 -2.00328827e-01 -3.84945989e-01 -3.03884697e+01
-2.26958454e-01 8.75317138e-02 4.29877341e-01 8.75317138e-02 1.51285368e+00 -3.94610777e-01 4.29877341e-01 -3.94610777e-01 -2.85418892e+01
2.80331215e+00 -1.74956072e-01 -3.90787846e-02 -1.74956072e-01 4.77963022e+00 2.18503905e-01 -3.90787846e-02 2.18503905e-01 -2.17081209e+01
-2.11275744e+00 7.60599226e-03 -2.49355644e-01 7.60599226e-03 8.50864142e-01 2.08254073e-01 -2.49355644e-01 2.08254073e-01 -3.12017922e+01
5.24813604e+00 -7.84313150e-01 4.57523540e-01 -7.84313150e-01 5.22111976e+00 3.25262301e-01 4.57523540e-01 3.25262301e-01 -1.86575084e+01
3.85667117e+00 -3.71141493e-01 -3.60752674e-01 -3.71141493e-01 4.97618745e+00 -7.79863626e-01 -3.60752674e-01 -7.79863626e-01 -2.02739695e+01
2.90089273e+00 -4.72349478e-02 -3.59412797e-01 -4.72349478e-02 2.64282203e+00 7.88263585e-02 -3.59412797e-01 7.88263585e-02 -2.39977567e+01
6.89598036e+00 -3.08871360e-01 -5.61090276e-01 -3.08871360e-01 6.31736261e+00 -4.16070567e-01 -5.61090276e-01 -4.16070567e-01 -1.56808211e+01
4.17093629e+00 -2.82871787e-01 7.06567587e-02 -2.82871787e-01 2.63922048e+00 -1.73056787e-01 7.06567587e-02 -1.73056787e-01 -2.26154810e+01
5.61209989e+00 -5.37751837e-01 -2.64778778e-01 -5.37751837e-01 5.37507272e+00 7.46081115e-01 -2.64778778e-01 7.46081115e-01 -1.80285408e+01
1.07962908e+01 -4.95142691e-01 2.98988558e-02 -4.95142691e-01 9.60876098e+00 5.57575688e-01 2.98988558e-02 5.57575688e-01 -7.86255121e+00
4.91448939e+00 -4.22664264e-01 -3.52166491e-02 -4.22664264e-01 3.91421250e+00 6.25799118e-01 -3.52166491e-02 6.25799118e-01 -2.04475716e+01
8.35595894e+00 4.13069978e-01 -2.89076135e-01 4.13069978e-01 9.22212696e+00 1.68405169e+00 -2.89076135e-01 1.68405169e+00 -1.07669358e+01
4.20151460e+00 2.60625541e-01 -1.00533262e+00 2.60625541e-01 3.49029207e+00 1.08009118e+00 -1.00533262e+00 1.08009118e+00 -2.15048692e+01
5.92053697e+00 -4.25478020e-01 2.53442097e-01 -4.25478020e-01 7.06081951e+00 -7.65288761e-01 2.53442097e-01 -7.65288761e-01 -1.58790157e+01
-1.33476718e+00 -5.06946884e-01 1.31647861e+00 -5.06946884e-01 9.35801327e-01 4.32401549e-02 1.31647861e+00 4.32401549e-02 -3.02052008e+01
-9.05629056e+00 -1.56835765e-01 -4.99702383e-01 -1.56835765e-01 -5.24009672e+00 -6.80152369e-02 -4.99702383e-01 -6.80152369e-02 -4.85788189e+01
-6.43896007e+01 -9.22262776e+00 1.87408346e+01 -9.22262776e+00 -6.55580684e+01 6.70288587e-01 1.87408346e+01 6.70288587e-01 -1.49182985e+02
-4.46246252e+01 -7.08234092e-01 6.88147418e-01 -7.08234092e-01 -4.02819090e+01 2.50955692e+00 6.88147418e-01 2.50955692e+00 -1.21640890e+02
-4.09191585e+01 -1.52159437e+00 2.57558060e+00 -1.52159437e+00 -3.39899228e+01 5.06942618e+00 2.57558060e+00 5.06942618e+00 -1.09601939e+02
-4.78163719e+01 -4.47319388e+00 2.32676226e+00 -4.47319388e+00 -3.70181980e+01 6.54937971e+00 2.32676226e+00 6.54937971e+00 -1.18939651e+02
1.44918003e+01 -4.76585208e-02 7.51285385e-01 -4.76585208e-02 1.58797269e+01 -9.42879731e-01 7.51285385e-01 -9.42879731e-01 2.67626727e+00
1.17479603e+01 -2.42569319e-01 9.66563039e-01 -2.42569319e-01 1.15139463e+01 8.56559929e-02 9.66563039e-01 8.56559929e-02 -4.73945332e+00
-3.71504243e+01 -2.08642418e+00 5.92042132e+00 -2.08642418e+00 -3.24258544e+01 1.32538212e+01 5.92042132e+00 1.32538212e+01 -8.80053055e+01
6.26045933e+01 6.50512683e+00 -1.52258787e+01 6.50512683e+00 6.18342514e+01 -6.84574485e+00 -1.52258787e+01 -6.84574485e+00 9.35259743e+01
1.55041739e+01 -4.57946803e-01 1.85572988e+00 -4.57946803e-01 1.36815280e+01 5.34333657e-01 1.85572988e+00 5.34333657e-01 2.55273274e+00
1.61748224e+01 8.50756496e-01 1.37816446e-01 8.50756496e-01 1.59872480e+01 4.65675844e-01 1.37816446e-01 4.65675844e-01 4.77895355e+00
3.20560885e+01 -1.55292461e+00 -4.42199511e-01 -1.55292461e+00 3.03898852e+01 -1.11118523e+00 -4.42199511e-01 -1.11118523e+00 3.43604568e+01
2.58896128e+01 -5.62166964e-01 -4.52893623e+00 -5.62166964e-01 2.73438714e+01 -1.65873667e-01 -4.52893623e+00 -1.65873667e-01 2.81363489e+01
1.77831765e+01 7.98178762e-02 1.73426416e-01 7.98178762e-02 1.48952231e+01 2.92975390e-02 1.73426416e-01 2.92975390e-02 5.51989126e+00
1.10668908e+01 -6.84635378e-01 4.81756438e-01 -6.84635378e-01 9.01402938e+00 4.11015358e-01 4.81756438e-01 4.11015358e-01 -8.14351797e+00
6.01953536e+00 -2.82860669e+00 8.99202337e-01 -2.82860669e+00 5.14568609e+00 2.50186623e+00 8.99202337e-01 2.50186623e+00 -1.54406684e+01
-2.24210238e+01 -2.05566174e+00 -1.10873818e-01 -2.05566174e+00 -2.03714688e+01 6.37016189e+00 -1.10873818e-01 6.37016189e+00 -7.86941310e+01
-3.15518290e+00 -9.21031117e-01 4.41120043e-02 -9.21031117e-01 -3.86180794e+00 -8.41887631e-02 4.41120043e-02 -8.41887631e-02 -3.76660924e+01
-5.60408163e+00 -6.47780031e-01 -3.05292070e-01 -6.47780031e-01 -8.94635010e+00 1.55189419e+00 -3.05292070e-01 1.55189419e+00 -4.55149593e+01
-1.31977911e+01 -4.43890207e-01 1.44376180e+00 -4.43890207e-01 -6.53168917e+00 -2.90848164e+00 1.44376180e+00 -2.90848164e+00 -5.06852512e+01
-9.13876648e+01 -4.37509680e+00 -6.72697639e+00 -4.37509680e+00 -8.58736076e+01 4.89819229e+00 -6.72697639e+00 4.89819229e+00 -2.21666428e+02
-2.26911649e-01 -5.98167628e-01 -2.75056854e-01 -5.98167628e-01 3.36980794e-01 2.70930432e-01 -2.75056854e-01 2.70930432e-01 -4.98456478e-01
-4.34883248e-01 -3.97415273e-02 -9.12078619e-02 -3.97415273e-02 -1.20962419e-01 -2.24268368e-01 -9.12078619e-02 -2.24268368e-01 1.67604424e-01
6.89149916e-01 -1.64668702e-01 -1.29523534e-01 -1.64668702e-01 -1.13899115e-01 5.72666466e-01 -1.29523534e-01 5.72666466e-01 -9.63561684e-01
3.67167056e-01 -7.23307729e-01 4.33373451e-02 -7.23307729e-01 -1.85877167e-01 -5.16129941e-01 4.33373451e-02 -5.16129941e-01 -5.69715694e-01
1.48492765e+00 4.04681545e-02 1.40177980e-01 4.04681545e-02 2.26056147e+00 -1.61022879e-04 1.40177980e-01 -1.61022879e-04 -2.59707003e+01
2.23795997e+00 4.68315311e-01 1.53448363e-02 4.68315311e-01 2.21715286e+00 2.68276237e-01 1.53448363e-02 2.68276237e-01 -2.51471974e+01
6.70768547e+00 -1.80068999e-01 1.09482687e-02 -1.80068999e-01 7.29622556e+00 4.50340861e-01 1.09482687e-02 4.50340861e-01 -1.48174915e+01
2.03128368e+00 1.83476081e-01 1.20508783e-01 1.83476081e-01 3.43195093e+00 -1.92809705e-01 1.20508783e-01 -1.92809705e-01 -2.40687460e+01
7.27760029e+00 -7.92413183e-01 1.62691824e-01 -7.92413183e-01 6.58175278e+00 -6.95697069e-02 1.62691824e-01 -6.95697069e-02 -1.49896445e+01
6.02283084e+00 -4.81508993e-01 8.28362186e-01 -4.81508993e-01 6.02774306e+00 8.89390499e-01 8.28362186e-01 8.89390499e-01 -1.67479757e+01
6.46006349e+00 1.25837350e-01 2.89115950e-01 1.25837350e-01 5.53968149e+00 6.43951416e-01 2.89115950e-01 6.43951416e-01 -1.69293113e+01
1.14281068e+01 -3.83410160e-02 5.32507738e-02 -3.83410160e-02 1.00380587e+01 -6.74682199e-02 5.32507738e-02 -6.74682199e-02 -6.78594793e+00
9.04875723e+00 8.29994539e-02 -1.90054077e-01 8.29994539e-02 7.16615143e+00 5.01711491e-01 -1.90054077e-01 5.01711491e-01 -1.23398595e+01
6.07249463e+00 -6.65774755e-03 -4.67814821e-01 -6.65774755e-03 4.00832689e+00 1.37165123e-01 -4.67814821e-01 1.37165123e-01 -1.90055295e+01
1.23318330e+01 -1.97926387e-01 -4.86486177e-02 -1.97926387e-01 1.08130749e+01 4.83523589e-02 -4.86486177e-02 4.83523589e-02 -4.88688800e+00