<VTKFile type="UnstructuredGrid" version="0.1" byte_order="LittleEndian">
<UnstructuredGrid>
<Piece NumberOfPoints="191" NumberOfCells="79">
<Points>
<DataArray type="Float64" NumberOfComponents="3" format="ascii">
 1.04490745e+00  5.24701834e+00  1.87881100e+00
 2.07478476e+00  5.23463821e+00  1.90103340e+00
 2.07642293e+00  6.29690647e+00  1.85690975e+00
 1.03957868e+00  6.29047775e+00  1.84801090e+00
 1.03648734e+00  5.28479767e+00  2.81429625e+00
 2.08007860e+00  5.28028536e+00  2.82493711e+00
 2.06734800e+00  6.36000109e+00  2.77066159e+00
 1.03991270e+00  6.32766438e+00  2.77748394e+00
 3.12677836e+00  5.21698761e+00  1.92348576e+00
 3.13759494e+00  6.28370523e+00  1.86012959e+00
 3.12163925e+00  5.27147388e+00  2.80240536e+00
 3.17576241e+00  6.33387232e+00  2.71949863e+00
 5.13390827e+00  5.20381069e+00  2.00003386e+00
 6.13390875e+00  5.20527267e+00  2.00003195e+00
 6.13244486e+00  6.20528030e+00  1.99998271e+00
 5.13241720e+00  6.20382452e+00  1.99996555e+00
 5.13389730e+00  5.20387411e+00  3.00002074e+00
 6.13389063e+00  5.20534468e+00  3.00004053e+00
 6.13242149e+00  6.20533562e+00  2.99997306e+00
 5.13243675e+00  6.20386362e+00  2.99997449e+00
 0.00000000e+00  0.00000000e+00  2.72617841e+00
 1.05208182e+00  0.00000000e+00  2.72419167e+00
 1.05520391e+00  1.05719519e+00  2.73007822e+00
 0.00000000e+00  1.05501294e+00  2.73529172e+00
 0.00000000e+00  0.00000000e+00  3.63289189e+00
 1.07003379e+00  0.00000000e+00  3.63369131e+00
 1.07197297e+00  1.05724859e+00  3.63536191e+00
 0.00000000e+00  1.05356574e+00  3.64398122e+00
 2.11562347e+00  0.00000000e+00  2.70994949e+00
 2.10331035e+00  1.04912984e+00  2.71897364e+00
 2.13564014e+00  0.00000000e+00  3.62343001e+00
 2.13863921e+00  1.06047893e+00  3.62308884e+00
 3.17203116e+00  0.00000000e+00  2.69427729e+00
 3.17319202e+00  1.04444826e+00  2.69812632e+00
 3.20232987e+00  0.00000000e+00  3.60654783e+00
 3.19540215e+00  1.05302608e+00  3.60831547e+00
 4.23994446e+00  0.00000000e+00  2.68070602e+00
 4.24292755e+00  1.04615879e+00  2.67579985e+00
 4.26109171e+00  0.00000000e+00  3.59427071e+00
 4.25785065e+00  1.04438210e+00  3.58750701e+00
 5.31161642e+00  0.00000000e+00  2.66408825e+00
 5.31202650e+00  1.04903603e+00  2.66641665e+00
 5.31816578e+00  0.00000000e+00  3.58528185e+00
 5.31721067e+00  1.04348969e+00  3.57334304e+00
 6.37794781e+00  0.00000000e+00  2.65877557e+00
 6.37740993e+00  1.04991782e+00  2.66042137e+00
 6.36436224e+00  0.00000000e+00  3.58180380e+00
 6.37921524e+00  1.04406524e+00  3.57348323e+00
 1.03911686e+00  2.10819340e+00  2.75134706e+00
 0.00000000e+00  2.12301350e+00  2.75475979e+00
 1.07174432e+00  2.11548686e+00  3.65875077e+00
 0.00000000e+00  2.11548042e+00  3.66038203e+00
 2.10320020e+00  2.11028910e+00  2.72962260e+00
 2.14837241e+00  2.12269497e+00  3.63132524e+00
 3.16263437e+00  2.11681247e+00  2.68674588e+00
 3.20551395e+00  2.11614180e+00  3.57496715e+00
 4.23801279e+00  2.12903166e+00  2.67566037e+00
 4.24729204e+00  2.10171652e+00  3.55655527e+00
 5.30618525e+00  2.12165642e+00  2.67803216e+00
 5.31175232e+00  2.11399746e+00  3.55742311e+00
 6.36473179e+00  2.12948918e+00  2.67252970e+00
 6.36776114e+00  2.11782527e+00  3.55641508e+00
 1.03503215e+00  3.18516684e+00  2.79570556e+00
 0.00000000e+00  3.18188548e+00  2.79180622e+00
 1.06822526e+00  3.18252683e+00  3.69462681e+00
 0.00000000e+00  3.18127775e+00  3.70429158e+00
 2.09275413e+00  3.16263914e+00  2.76451159e+00
 2.16626072e+00  3.18722963e+00  3.62106323e+00
 3.07267690e+00  3.13804626e+00  2.45579720e+00
 3.23430109e+00  3.16679621e+00  3.50095725e+00
 1.03552914e+00  4.22935629e+00  2.82832193e+00
 0.00000000e+00  4.23783159e+00  2.82078981e+00
 1.05513787e+00  4.25199032e+00  3.75883889e+00
 0.00000000e+00  4.25991678e+00  3.73669410e+00
 0.00000000e+00  5.27838993e+00  2.80999041e+00
 1.04910159e+00  5.33005238e+00  3.73742938e+00
 0.00000000e+00  5.30944347e+00  3.72342634e+00
 2.08314347e+00  4.22993612e+00  2.86320996e+00
 2.12325358e+00  4.26558495e+00  3.73418355e+00
 2.11826420e+00  5.30803442e+00  3.74226117e+00
 0.00000000e+00  6.33197641e+00  2.76602697e+00
 1.06912577e+00  6.38764811e+00  3.66561222e+00
 0.00000000e+00  6.40470219e+00  3.68476057e+00
 2.11789751e+00  6.41027308e+00  3.66850710e+00
 3.15599442e+00  5.28558826e+00  3.61323690e+00
 3.24599624e+00  6.32476425e+00  3.61631727e+00
 0.00000000e+00  0.00000000e+00  4.53096342e+00
 1.08681440e+00  0.00000000e+00  4.52817726e+00
 1.09064841e+00  1.05920589e+00  4.53138256e+00
 0.00000000e+00  1.05508792e+00  4.53452349e+00
 2.15885735e+00  0.00000000e+00  4.52339029e+00
 2.16949558e+00  1.06859875e+00  4.52204227e+00
 3.22021914e+00  0.00000000e+00  4.51476383e+00
 3.22679067e+00  1.07086086e+00  4.51401472e+00
 4.27652502e+00  0.00000000e+00  4.50602722e+00
 4.26965237e+00  1.06408620e+00  4.50555229e+00
 5.32194757e+00  0.00000000e+00  4.50183105e+00
 5.31508207e+00  1.05796576e+00  4.49732971e+00
 6.35873413e+00  0.00000000e+00  4.49901819e+00
 6.36039162e+00  1.06315470e+00  4.50018358e+00
 1.10344112e+00  2.12534428e+00  4.53845024e+00
 0.00000000e+00  2.11459589e+00  4.54616308e+00
 2.18881035e+00  2.13815308e+00  4.52123070e+00
 3.24446177e+00  2.13947058e+00  4.49404430e+00
 4.27686453e+00  2.12532878e+00  4.47139740e+00
 5.30041981e+00  2.10769796e+00  4.45871019e+00
 6.32985353e+00  2.11501312e+00  4.45877457e+00
 1.10526645e+00  3.17421603e+00  4.57689953e+00
 0.00000000e+00  3.19360685e+00  4.59250689e+00
 2.21111178e+00  3.18129373e+00  4.51429939e+00
 3.28272581e+00  3.17386818e+00  4.43972206e+00
 4.26668501e+00  3.07542920e+00  3.37028551e+00
 4.30013943e+00  3.15607166e+00  4.41699028e+00
 1.11113596e+00  4.24679661e+00  4.65514565e+00
 0.00000000e+00  4.23305941e+00  4.61304331e+00
 2.22299194e+00  4.22784615e+00  4.55516243e+00
 1.09171450e+00  5.36322594e+00  4.58541679e+00
 0.00000000e+00  5.37174654e+00  4.58594513e+00
 1.11135674e+00  6.47401714e+00  4.55106115e+00
 0.00000000e+00  6.46788883e+00  4.56522846e+00
 2.16928411e+00  5.33472633e+00  4.59215546e+00
 2.25536776e+00  6.41366100e+00  4.56130648e+00
 3.25976658e+00  5.24298143e+00  4.46913004e+00
 3.36640096e+00  6.27354860e+00  4.50005817e+00
 4.06315422e+00  5.21515036e+00  3.29370260e+00
 4.22138643e+00  6.20703363e+00  3.38396764e+00
 4.33510923e+00  5.15605831e+00  4.41570520e+00
 4.35405970e+00  6.15735674e+00  4.41604376e+00
 5.33542299e+00  5.13863659e+00  3.41585779e+00
 6.33525133e+00  5.12100029e+00  3.41583633e+00
 6.35289526e+00  6.12084913e+00  3.41587949e+00
 5.35301256e+00  6.13852072e+00  3.41595221e+00
 5.33539057e+00  5.13861561e+00  4.41585827e+00
 6.33531189e+00  5.12096119e+00  4.41585684e+00
 6.35289717e+00  6.12082100e+00  4.41587305e+00
 5.35314608e+00  6.13836432e+00  4.41594505e+00
 0.00000000e+00  0.00000000e+00  5.41588783e+00
 1.09208238e+00  0.00000000e+00  5.41588783e+00
 1.09933054e+00  1.06344831e+00  5.41588783e+00
 0.00000000e+00  1.05703139e+00  5.41588783e+00
 2.17076612e+00  0.00000000e+00  5.41588783e+00
 2.17788935e+00  1.07373798e+00  5.41588783e+00
 3.22793269e+00  0.00000000e+00  5.41588783e+00
 3.23949718e+00  1.07891083e+00  5.41588783e+00
 4.27928495e+00  0.00000000e+00  5.41588783e+00
 4.27995110e+00  1.07818222e+00  5.41588783e+00
 5.32134771e+00  0.00000000e+00  5.41588783e+00
 5.31681442e+00  1.07296133e+00  5.41588783e+00
 6.36528921e+00  0.00000000e+00  5.41588783e+00
 6.34114361e+00  1.08251345e+00  5.41588783e+00
 1.11979961e+00  2.11499071e+00  5.41588783e+00
 0.00000000e+00  2.10932112e+00  5.41588783e+00
 2.21173882e+00  2.13927770e+00  5.41588783e+00
 3.25933981e+00  2.15118766e+00  5.41588783e+00
 4.28843355e+00  2.14057350e+00  5.41588783e+00
 5.29749966e+00  2.12505937e+00  5.41588783e+00
 6.31726265e+00  2.12574363e+00  5.41588783e+00
 1.12812543e+00  3.21594286e+00  5.41588783e+00
 0.00000000e+00  3.22210026e+00  5.41588783e+00
 2.24532628e+00  3.19020724e+00  5.41588783e+00
 3.29854250e+00  3.18437886e+00  5.41588783e+00
 4.30080843e+00  3.15681219e+00  5.41588783e+00
 5.30050707e+00  3.13799238e+00  4.41517830e+00
 5.30105925e+00  3.13868213e+00  5.41588783e+00
 6.30256891e+00  3.12317872e+00  4.41450882e+00
 6.30281448e+00  3.12494898e+00  5.41588783e+00
 3.31796336e+00  4.17517948e+00  4.39894295e+00
 3.32766747e+00  4.18748665e+00  5.41588783e+00
 2.31471086e+00  4.21832323e+00  5.41588783e+00
 4.31808233e+00  4.15580797e+00  4.41614628e+00
 4.31823444e+00  4.15601492e+00  5.41588783e+00
 5.31785440e+00  4.13882589e+00  4.41584015e+00
 5.31794071e+00  4.13872814e+00  5.41588783e+00
 6.31757307e+00  4.12137175e+00  4.41593599e+00
 6.31748247e+00  4.12122726e+00  5.41588783e+00
 0.00000000e+00  4.20258045e+00  5.41588783e+00
 1.14054322e+00  4.23290443e+00  5.41588783e+00
 1.12541258e+00  5.39171219e+00  5.41588783e+00
 0.00000000e+00  5.41535568e+00  5.41588783e+00
 5.33533573e+00  5.13861370e+00  5.41588783e+00
 4.33550501e+00  5.15613794e+00  5.41588783e+00
 6.33534908e+00  5.12098646e+00  5.41588783e+00
 1.13520062e+00  6.49590015e+00  5.41588783e+00
 0.00000000e+00  6.48523951e+00  5.41588783e+00
 2.21240568e+00  5.34124756e+00  5.41588783e+00
 2.30537176e+00  6.40890837e+00  5.41588783e+00
 3.27816963e+00  5.22130394e+00  5.41588783e+00
 3.38833380e+00  6.25764084e+00  5.41588783e+00
 4.35442924e+00  6.15658236e+00  5.41588783e+00
 5.35315990e+00  6.13830280e+00  5.41588783e+00
 6.35289335e+00  6.12081861e+00  5.41588783e+00
</DataArray>
</Points>
<PointData Tensors="Stress_Components,Plastic_strain_components" Vevtors="Spatial_displacement,Reaction_force" Scalars="Equivalent_plastic_strain,Stress_Mises,Stress_Max_Principal,Stress_Mid_Principal,Stress_Min_Principal,Stress_Pressure,Stress_Tresca,Stress_Third_Invariant,Plastic_strain_Max_Principal,Plastic_strain_Min_Principal">
<DataArray type="Float32" Name="Stress_Components" NumberOfComponents="9" format="ascii">
1.75418697e+01 5.94254807e-02 1.82746183e-01 5.94254807e-02 1.46521957e+01 4.12288848e-02 1.82746183e-01 4.12288848e-02 5.00322360e+00
5.58846474e+00 -2.80345901e+00 8.99121493e-01 -2.80345901e+00 4.78375846e+00 2.47346435e+00 8.99121493e-01 2.47346435e+00 -1.63542843e+01
-1.24729223e+01 -3.93728696e-01 1.40566102e+00 -3.93728696e-01 -5.92178917e+00 -2.81927961e+00 1.40566102e+00 -2.81927961e+00 -4.92694874e+01
-2.97483605e+00 -8.93371850e-01 1.28252730e-02 -8.93371850e-01 -3.55678511e+00 -6.77508824e-02 1.28252730e-02 -6.77508824e-02 -3.71442471e+01
1.63300523e+01 6.37147939e-02 8.78819831e-01 6.37147939e-02 1.69681221e+01 -3.26415017e-01 8.78819831e-01 -3.26415017e-01 5.96165729e+00
2.32344674e+01 -2.42046744e+00 3.21505129e+00 -2.42046744e+00 2.58161779e+01 2.04399228e-01 3.21505129e+00 2.04399228e-01 1.86487075e+01
-1.27498933e+01 -2.10468560e-01 7.03472331e-01 -2.10468560e-01 5.96939921e-01 -4.73734047e-02 7.03472331e-01 -4.73734047e-02 -4.11799157e+01
1.21372390e+01 -2.62326494e-01 3.65176322e-01 -2.62326494e-01 1.08031772e+01 4.84448775e-01 3.65176322e-01 4.84448775e-01 -5.59175730e+00
-2.21055689e+01 -1.98929931e+00 -1.89377738e-01 -1.98929931e+00 -2.01510389e+01 6.29124835e+00 -1.89377738e-01 6.29124835e+00 -7.80248272e+01
-9.02666321e+01 -4.19998074e+00 -6.50449109e+00 -4.19998074e+00 -8.47213650e+01 4.85403347e+00 -6.50449109e+00 4.85403347e+00 -2.19246277e+02
-7.47639618e+01 8.97932911e+00 -2.79390846e+01 8.97932911e+00 -7.92278681e+01 -1.94187911e+00 -2.79390846e+01 -1.94187911e+00 -1.75467714e+02
-5.31313870e+01 -1.85111761e-02 -5.06572104e+00 -1.85111761e-02 -7.76456442e+01 -1.07728827e+00 -5.06572104e+00 -1.07728827e+00 -1.69478390e+02
-2.37200573e-01 -5.97363889e-01 -2.74064235e-01 -5.97363889e-01 3.21947120e-01 2.68538103e-01 -2.74064235e-01 2.68538103e-01 -4.69840318e-01
-4.31051027e-01 -4.01312578e-02 -9.25607383e-02 -4.01312578e-02 -1.19628660e-01 -2.32745528e-01 -9.25607383e-02 -2.32745528e-01 1.65732555e-01
6.95883423e-01 -1.63946360e-01 -1.25635874e-01 -1.63946360e-01 -1.07268315e-01 5.76575316e-01 -1.25635874e-01 5.76575316e-01 -9.73632634e-01
3.70423496e-01 -7.21386731e-01 3.26218307e-02 -7.21386731e-01 -1.84960058e-01 -5.17522484e-01 3.26218307e-02 -5.17522484e-01 -5.70591688e-01
2.33640403e-01 2.03636229e-01 3.78653437e-01 2.03636229e-01 5.85787222e-02 1.59644052e-01 3.78653437e-01 1.59644052e-01 -2.73911692e-02
-5.62972538e-02 2.53299177e-02 1.11455493e-01 2.53299177e-02 -1.56383291e-01 1.10873431e-02 1.11455493e-01 1.10873431e-02 4.77616459e-01
-5.12104295e-02 6.27753288e-02 -2.44314030e-01 6.27753288e-02 2.05345944e-01 -5.40708840e-01 -2.44314030e-01 -5.40708840e-01 1.10752039e-01
-3.13473344e-01 2.41113126e-01 -1.39474809e-01 2.41113126e-01 -1.31978989e-01 3.43217552e-01 -1.39474809e-01 3.43217552e-01 7.10150719e-01
1.38535810e+00 3.97147443e-02 1.51563298e-01 3.97147443e-02 2.15432072e+00 -1.00258393e-02 1.51563298e-01 -1.00258393e-02 -2.61953487e+01
2.11562560e+00 4.68194142e-01 2.86849523e-02 4.68194142e-01 2.09191471e+00 2.73376405e-01 2.86849523e-02 2.73376405e-01 -2.54155331e+01
6.53994734e+00 -1.95176559e-01 3.52627859e-02 -1.95176559e-01 7.13032975e+00 4.55216413e-01 3.52627859e-02 4.55216413e-01 -1.51776473e+01
1.91576439e+00 1.87665569e-01 1.41352612e-01 1.87665569e-01 3.32783574e+00 -1.98805528e-01 1.41352612e-01 -1.98805528e-01 -2.43063990e+01
6.77396846e+00 -3.01782833e-02 5.64268202e-01 -3.01782833e-02 5.76938581e+00 2.12193981e-01 5.64268202e-01 2.12193981e-01 -1.64237833e+01
3.57410252e-01 2.27929857e-01 -2.23310787e-01 2.27929857e-01 -4.41471934e-02 1.10065867e+00 -2.23310787e-01 1.10065867e+00 -2.95743449e+01
4.51212248e+00 3.61525315e-01 2.37183507e-01 3.61525315e-01 3.99361587e+00 3.98734612e-01 2.37183507e-01 3.98734612e-01 -2.07910165e+01
1.28816208e+00 3.46959528e-01 5.90170093e-01 3.46959528e-01 -1.28628761e-01 -6.35986347e-01 5.90170093e-01 -6.35986347e-01 -2.86841674e+01
7.14347982e+00 -8.00277725e-01 1.65665871e-01 -8.00277725e-01 6.42014861e+00 -6.14775503e-02 1.65665871e-01 -6.14775503e-02 -1.53091427e+01
6.04009420e+00 -4.93711507e-01 8.30561431e-01 -4.93711507e-01 6.02979660e+00 8.89991660e-01 8.30561431e-01 8.89991660e-01 -1.67231244e+01
1.62934780e-01 1.03444714e-01 -2.83836806e-03 1.03444714e-01 2.73627758e-01 3.22833428e-01 -2.83836806e-03 3.22833428e-01 -2.95831962e+01
-1.40177363e+00 6.22169416e-02 1.05073890e+00 6.22169416e-02 8.97323191e-02 1.81735301e+00 1.05073890e+00 1.81735301e+00 -3.11369245e+01
6.55880970e+00 1.26920233e-01 2.78378321e-01 1.26920233e-01 5.60135019e+00 6.35264333e-01 2.78378321e-01 6.35264333e-01 -1.67555928e+01
1.13623911e+01 -4.22779839e-02 5.60244883e-02 -4.22779839e-02 9.93371564e+00 -6.64686359e-02 5.60244883e-02 -6.64686359e-02 -6.96659555e+00
3.45190801e+00 -7.61090189e-01 3.36297713e-01 -7.61090189e-01 2.46910723e+00 8.63094348e-01 3.36297713e-01 8.63094348e-01 -2.35115905e+01
3.56730562e+00 -6.38370710e-01 5.40988739e-01 -6.38370710e-01 3.57538950e+00 7.51961151e-01 5.40988739e-01 7.51961151e-01 -2.21401118e+01
9.10865177e+00 9.42315590e-02 -1.79286330e-01 9.42315590e-02 7.18914628e+00 4.80470320e-01 -1.79286330e-01 4.80470320e-01 -1.22485131e+01
5.86470705e+00 5.75607829e-03 -4.76750073e-01 5.75607829e-03 3.76947296e+00 1.25605045e-01 -4.76750073e-01 1.25605045e-01 -1.94864344e+01
7.24598086e+00 -3.01124744e-01 -1.35494459e-01 -3.01124744e-01 5.57909584e+00 5.81385173e-01 -1.35494459e-01 5.81385173e-01 -1.60837542e+01
1.52299049e+01 -3.80653005e-01 3.33662918e-01 -3.80653005e-01 1.40521594e+01 -2.22776355e-01 3.33662918e-01 -2.22776355e-01 1.62400818e+00
1.23561366e+01 -1.94427943e-01 -3.65398801e-02 -1.94427943e-01 1.07963525e+01 3.14491652e-02 -3.65398801e-02 3.14491652e-02 -4.87595224e+00
1.00202761e+01 5.52902627e-02 -3.13832262e-01 5.52902627e-02 7.46486306e+00 9.70409280e-02 -3.13832262e-01 9.70409280e-02 -1.09884663e+01
1.68542879e+01 -1.50943911e-01 -1.35987804e-01 -1.50943911e-01 1.69819485e+01 -2.91731827e-01 -1.35987804e-01 -2.91731827e-01 6.57149839e+00
8.36486444e+00 -2.23962649e-01 -1.30702754e-01 -2.23962649e-01 7.04432124e+00 -3.08652118e-01 -1.30702754e-01 -3.08652118e-01 -1.32942110e+01
1.28638773e+01 -9.47965905e-02 -1.24070289e-01 -9.47965905e-02 1.21786101e+01 -2.64867067e-01 -1.24070289e-01 -2.64867067e-01 -2.78809261e+00
1.77016077e+01 3.31007450e-01 -4.34152635e-01 3.31007450e-01 1.57205745e+01 6.77890889e-02 -4.34152635e-01 6.77890889e-02 6.12096882e+00
1.87894311e+01 4.51018065e-01 2.92230155e-02 4.51018065e-01 1.96056600e+01 -6.83874711e-01 2.92230155e-02 -6.83874711e-01 1.15975599e+01
1.19103132e+01 5.45871258e-01 3.81990384e-01 5.45871258e-01 1.07480087e+01 -9.21836124e-01 3.81990384e-01 -9.21836124e-01 -5.31494927e+00
2.45833230e+00 -7.57104989e-01 1.34465474e+00 -7.57104989e-01 4.75249022e+00 1.68774053e-02 1.34465474e+00 1.68774053e-02 -2.16910202e+01
3.69927502e+00 -1.06944404e+00 8.83891139e-01 -1.06944404e+00 6.99331212e+00 -2.54220887e-01 8.83891139e-01 -2.54220887e-01 -1.81020877e+01
-5.04205719e+00 4.61741818e-01 2.26852017e+00 4.61741818e-01 -6.20843512e+00 2.08773752e+00 2.26852017e+00 2.08773752e+00 -4.16510491e+01
7.76696682e-01 -1.09134823e-01 3.62928445e-01 -1.09134823e-01 1.08320546e+00 -5.57183172e-02 3.62928445e-01 -5.57183172e-02 -2.80485692e+01
1.74336194e+01 2.94240838e+00 4.32409810e+00 2.94240838e+00 1.58748582e+01 3.57023811e+00 4.32409810e+00 3.57023811e+00 -9.65270315e-01
-6.89886647e+00 8.84748130e-01 -1.64696544e-01 8.84748130e-01 -6.66723570e+00 3.13280255e-01 -1.64696544e-01 3.13280255e-01 -4.32227664e+01
-8.28610558e+01 -7.14037060e+00 -1.82218377e+01 -7.14037060e+00 -8.37050186e+01 -2.15520437e+00 -1.82218377e+01 -2.15520437e+00 -1.89163260e+02
1.36279855e+01 1.44205947e+00 6.38812295e-01 1.44205947e+00 1.76919469e+01 1.30629074e+00 6.38812295e-01 1.30629074e+00 -1.02148989e+00
-5.28256493e+01 -1.36270404e+00 -4.00695580e+00 -1.36270404e+00 -4.80998225e+01 1.08827795e+00 -4.00695580e+00 1.08827795e+00 -1.38698296e+02
-3.78869398e+01 -2.01633113e+00 -1.78343160e+01 -2.01633113e+00 -4.81423805e+01 -1.36866882e+00 -1.78343160e+01 -1.36866882e+00 -1.00256634e+02
-3.52233896e+01 -1.71378189e+00 -1.43107343e-01 -1.71378189e+00 -3.07092028e+01 1.59989095e+00 -1.43107343e-01 1.59989095e+00 -1.01077240e+02
-4.74939556e+01 -4.30799386e-01 -4.29034817e+00 -4.30799386e-01 -4.18178668e+01 -1.72426743e+00 -4.29034817e+00 -1.72426743e+00 -1.26073519e+02
-3.00464802e+01 -2.76699388e+00 -7.72333816e-01 -2.76699388e+00 -2.09311247e+01 3.38866949e-01 -7.72333816e-01 3.38866949e-01 -8.42644958e+01
-4.76926212e+01 -4.50907338e+00 -4.90182257e+00 -4.50907338e+00 -3.60904856e+01 -3.76892487e+00 -4.90182257e+00 -3.76892487e+00 -1.18149635e+02
3.32389648e+00 1.30099283e-01 2.70487396e+00 1.30099283e-01 5.92634565e+00 5.85230524e-01 2.70487396e+00 5.85230524e-01 -1.92710333e+01
1.28753273e+01 7.01763660e-02 1.10380967e+00 7.01763660e-02 1.38943915e+01 -2.58133367e-01 1.10380967e+00 -2.58133367e-01 -8.99424314e-01
-1.03164501e+01 -4.15577400e-01 3.76574335e+00 -4.15577400e-01 -1.06657525e+01 1.69431452e+00 3.76574335e+00 1.69431452e+00 -5.16657411e+01
4.05813682e+00 4.43989225e-02 1.55225566e+00 4.43989225e-02 5.58366686e+00 1.05356830e-01 1.55225566e+00 1.05356830e-01 -1.95194545e+01
-1.12432240e+02 -1.23192668e+01 8.94514674e+00 -1.23192668e+01 -1.02570315e+02 -1.58592997e+01 8.94514674e+00 -1.58592997e+01 -2.34766365e+02
-2.09692102e+01 2.47962825e+00 2.57173840e+00 2.47962825e+00 -2.84029333e+01 -2.93847663e+00 2.57173840e+00 -2.93847663e+00 -8.43040830e+01
1.31029068e+02 1.45578852e+01 2.32639618e+01 1.45578852e+01 1.26499001e+02 2.31483517e+01 2.32639618e+01 2.31483517e+01 1.99626175e+02
7.47724915e+00 -5.51927813e+00 -8.42006052e+00 -5.51927813e+00 5.12506739e+00 -5.43877514e+00 -8.42006052e+00 -5.43877514e+00 -2.06387377e+00
2.45226460e+01 -6.48530083e-02 -2.41664803e+00 -6.48530083e-02 2.45992275e+01 2.22300368e-01 -2.41664803e+00 2.22300368e-01 2.23460391e+01
1.39546635e+01 -3.81709229e-01 1.21155338e+00 -3.81709229e-01 1.42066953e+01 6.63945299e-01 1.21155338e+00 6.63945299e-01 8.27253819e-01
2.15304156e+01 -5.89495038e-01 -2.60205050e-01 -5.89495038e-01 2.34436683e+01 1.05022003e+00 -2.60205050e-01 1.05022003e+00 1.94369227e+01
6.99862623e+00 -9.29895005e-01 2.44970399e+00 -9.29895005e-01 7.63193345e+00 1.77884888e+00 2.44970399e+00 1.77884888e+00 -1.34748821e+01
1.47218054e+01 -5.50504830e-02 7.40817469e-02 -5.50504830e-02 1.46517818e+01 2.52770849e-01 7.40817469e-02 2.52770849e-01 1.81406474e+00
2.13550189e+01 3.55561035e-01 1.05319684e+00 3.55561035e-01 2.21449272e+01 1.26152064e-01 1.05319684e+00 1.26152064e-01 1.72194233e+01
1.86735058e+00 1.93368971e+00 1.37236781e-01 1.93368971e+00 4.51021314e+00 1.19829178e+00 1.37236781e-01 1.19829178e+00 -2.28447426e+01
-6.01778553e+01 2.00043805e+00 6.07922513e+00 2.00043805e+00 -5.63204350e+01 1.95734695e+01 6.07922513e+00 1.95734695e+01 -1.35001066e+02
-1.06031368e+02 -3.81701344e+00 1.28860621e+01 -3.81701344e+00 -1.03220097e+02 1.20669775e+01 1.28860621e+01 1.20669775e+01 -2.52759117e+02
-5.75752206e+00 -3.05467888e+00 -3.03317069e+00 -3.05467888e+00 3.34056854e-01 5.12031851e+00 -3.03317069e+00 5.12031851e+00 -3.42634018e+01
4.10189152e+00 -4.40637559e-01 -3.16989586e-01 -4.40637559e-01 6.14220810e+00 7.77533546e-01 -3.16989586e-01 7.77533546e-01 -1.89257431e+01
1.11987734e+00 1.25765062e+00 -1.36179380e+00 1.25765062e+00 -6.87687874e-01 8.58700529e-01 -1.36179380e+00 8.58700529e-01 -2.95001936e+01
2.85204887e+00 -1.82993899e+00 2.28241992e+00 -1.82993899e+00 6.64753914e+00 -1.35060555e+00 2.28241992e+00 -1.35060555e+00 -1.94535751e+01
-2.29734654e+01 -3.58112938e+00 -4.36965382e+00 -3.58112938e+00 -1.78017998e+01 3.88528425e+00 -4.36965382e+00 3.88528425e+00 -6.98223991e+01
-8.95929705e+01 1.21406681e+01 5.78790963e-01 1.21406681e+01 -5.26037178e+01 -3.90625509e+01 5.78790963e-01 -3.90625509e+01 -1.26544314e+02
-1.96529039e+00 -4.08441873e+00 -7.37980381e-01 -4.08441873e+00 -7.55525970e+00 -3.47668688e+00 -7.37980381e-01 -3.47668688e+00 -3.60326182e+01
5.23907110e+00 -3.79872238e-02 1.95508532e-01 -3.79872238e-02 2.80649149e+00 -1.30890212e-02 1.95508532e-01 -1.30890212e-02 -2.11845250e+01
2.26497889e-01 1.25209653e-01 -6.88568261e-02 1.25209653e-01 -1.04129076e+00 7.27344689e-01 -6.88568261e-02 7.27344689e-01 -3.08043403e+01
8.57396016e-01 6.83824538e-01 2.35461548e-01 6.83824538e-01 -8.71295094e-01 3.73772699e-01 2.35461548e-01 3.73772699e-01 -2.99267863e+01
-3.88092309e-01 2.94412103e-01 3.88964973e-01 2.94412103e-01 -3.55439204e+00 -2.94358186e-01 3.88964973e-01 -2.94358186e-01 -3.40996127e+01
-5.62064278e+00 8.22008148e-01 -1.78333472e-01 8.22008148e-01 -3.92731071e+00 7.82591656e-01 -1.78333472e-01 7.82591656e-01 -4.02328069e+01
-6.49510759e+00 1.25054200e+00 4.84333126e-01 1.25054200e+00 -4.84145863e+00 1.51600915e+00 4.84333126e-01 1.51600915e+00 -4.19491239e+01
-6.73114735e+00 2.98434988e-01 5.79837911e-01 2.98434988e-01 -5.02666843e+00 3.88404284e-01 5.79837911e-01 3.88404284e-01 -4.27333789e+01
-1.36676125e+01 5.37318479e-01 7.85951056e-01 5.37318479e-01 -7.46723378e+00 1.81799666e+00 7.85951056e-01 1.81799666e+00 -5.21277784e+01
-4.44903755e+00 -1.27646621e+00 3.83285686e-01 -1.27646621e+00 -2.49224660e+00 5.81615071e-01 3.83285686e-01 5.81615071e-01 -3.73893111e+01
-2.13184443e+00 -7.06921207e-01 -1.34572435e-01 -7.06921207e-01 1.51507780e+00 -1.02765543e-01 -1.34572435e-01 -1.02765543e-01 -3.04167589e+01
5.00286381e+00 -5.33471011e-01 -7.37636024e-03 -5.33471011e-01 7.28911158e+00 -5.97660609e-01 -7.37636024e-03 -5.97660609e-01 -1.65737576e+01
9.40631175e+00 -1.04784971e+00 -1.83269914e-01 -1.04784971e+00 1.03100003e+01 -2.44415477e-02 -1.83269914e-01 -2.44415477e-02 -8.63861740e+00
5.98452091e-01 4.05058235e-01 8.51773888e-01 4.05058235e-01 5.21424556e+00 -1.35192096e+00 8.51773888e-01 -1.35192096e+00 -2.31940027e+01
-3.75513344e+00 -1.13566971e+00 1.64401144e-01 -1.13566971e+00 -2.95498371e-02 -2.09185746e+00 1.64401144e-01 -2.09185746e+00 -3.33841581e+01
-6.58609220e+00 1.34887976e+00 8.70803762e-01 1.34887976e+00 -1.03069659e+01 1.77094283e+00 8.70803762e-01 1.77094283e+00 -4.78544207e+01
-2.35313416e+00 7.76577502e-01 2.00643182e-01 7.76577502e-01 -5.99578571e+00 -9.53185004e-02 2.00643182e-01 -9.53185004e-02 -3.88451385e+01
-8.77975905e+00 2.85610719e+00 3.44040247e-01 2.85610719e+00 -9.01093090e+00 1.03687781e+00 3.44040247e-01 1.03687781e+00 -4.87814363e+01
6.55116487e+00 1.71364255e+00 -5.51050689e+00 1.71364255e+00 8.57396030e+00 -6.39977219e-01 -5.51050689e+00 -6.39977219e-01 -1.05538145e+01
1.26572268e+01 -2.25773361e-01 -2.43849340e+00 -2.25773361e-01 1.83220147e+01 -7.37828325e-02 -2.43849340e+00 -7.37828325e-02 2.21173368e+00
-1.10274351e+01 -2.79858383e+00 -7.53776660e+00 -2.79858383e+00 -4.11640763e+00 -1.90130912e+00 -7.53776660e+00 -1.90130912e+00 -4.27655563e+01
-6.28907649e+00 -5.99238666e+00 -9.25859177e+00 -5.99238666e+00 -9.70132128e+00 -2.31098008e+00 -9.25859177e+00 -2.31098008e+00 -4.17467702e+01
-2.44969123e+01 2.52509654e-01 4.45467818e+00 2.52509654e-01 -3.33643804e+01 3.25250501e-02 4.45467818e+00 3.25250501e-02 -9.11479931e+01
-2.86936401e+01 -1.43597154e+00 3.89074318e+00 -1.43597154e+00 -3.29091670e+01 -1.96325968e-01 3.89074318e+00 -1.96325968e-01 -9.61929181e+01
1.37035728e+01 2.37715097e+00 -6.19013477e-01 2.37715097e+00 9.29183626e+00 -4.33243653e+00 -6.19013477e-01 -4.33243653e+00 -3.73007852e+00
3.68605493e+01 1.66429655e+00 -2.23237714e+00 1.66429655e+00 3.23583660e+01 1.26373768e-02 -2.23237714e+00 1.26373768e-02 4.29959494e+01
8.15554199e+01 4.29068136e+00 2.65082779e+01 4.29068136e+00 9.91976318e+01 7.06972504e+00 2.65082779e+01 7.06972504e+00 1.28131332e+02
2.08967978e+01 -2.54805199e+00 -7.25923526e-01 -2.54805199e+00 1.47746716e+01 -3.12569070e+00 -7.25923526e-01 -3.12569070e+00 1.66016373e+01
-2.55562530e+01 -4.38980207e-01 1.08811498e-01 -4.38980207e-01 -2.29192127e+01 5.86447255e+00 1.08811498e-01 5.86447255e+00 -7.99770217e+01
2.29908562e+00 9.49679514e-02 -1.72310150e+00 9.49679514e-02 5.08711497e-01 2.94393139e+00 -1.72310150e+00 2.94393139e+00 -2.68136953e+01
-1.07405849e+02 -1.21817260e+01 1.16917815e+01 -1.21817260e+01 -1.58454502e+02 -1.33589454e+01 1.16917815e+01 -1.33589454e+01 -3.04096214e+02
-3.39630455e+01 3.23642706e-01 -1.84599291e+00 3.23642706e-01 -2.91101839e+01 4.89529065e+00 -1.84599291e+00 4.89529065e+00 -9.72449843e+01
-1.33656504e+01 -5.88209599e-01 3.95742636e+00 -5.88209599e-01 -1.03750232e+01 -2.41128840e-01 3.95742636e+00 -2.41128840e-01 -5.54533978e+01
2.06918055e+01 -2.47131705e-01 2.20233355e+00 -2.47131705e-01 1.91513809e+01 2.20946006e-01 2.20233355e+00 2.20946006e-01 1.30030701e+01
1.02155151e+01 4.84179348e-01 4.37547594e-01 4.84179348e-01 9.10959625e+00 -7.23698343e-01 4.37547594e-01 -7.23698343e-01 -8.97703934e+00
-3.24488091e+01 7.83767939e-01 -5.34962744e-01 7.83767939e-01 -4.09084233e+01 -3.73798311e+00 -5.34962744e-01 -3.73798311e+00 -1.07322436e+02
-1.16115549e+01 -1.44908088e+00 -3.25209555e+00 -1.44908088e+00 -2.14970324e+01 6.76028681e+00 -3.25209555e+00 6.76028681e+00 -6.11457338e+01
9.31634009e+00 -1.38290309e+00 -5.60338356e-01 -1.38290309e+00 -9.19851708e+00 6.29521549e+00 -5.60338356e-01 6.29521549e+00 -4.03919096e+01
1.29012518e+01 -1.88138819e+00 2.14084701e+00 -1.88138819e+00 2.11888237e+01 -3.85575620e+00 2.14084701e+00 -3.85575620e+00 8.64257514e+00
9.24205246e+01 -4.25286102e+00 7.57407904e-01 -4.25286102e+00 6.49256363e+01 2.21480217e+01 7.57407904e-01 2.21480217e+01 8.92939224e+01
4.20391769e+01 2.82013273e+00 -3.43446881e-01 2.82013273e+00 3.79079208e+01 5.94332886e+00 -3.43446881e-01 5.94332886e+00 5.56509438e+01
8.96765471e+00 -2.47098309e+00 -2.22972506e+00 -2.47098309e+00 1.00186048e+01 9.86644998e-01 -2.22972506e+00 9.86644998e-01 1.06644941e+01
4.50967832e+00 -4.79523774e+00 -1.85045201e+00 -4.79523774e+00 1.43559157e+01 -3.63483896e+00 -1.85045201e+00 -3.63483896e+00 7.34526650e+00
-1.16809547e+00 -9.49093699e-01 1.53011155e+00 -9.49093699e-01 1.17566383e+00 -1.09279418e+00 1.53011155e+00 -1.09279418e+00 -4.79137689e-01
-9.36804533e-01 1.60239846e-01 1.05614677e-01 1.60239846e-01 -1.08517855e-01 8.06670129e-01 1.05614677e-01 8.06670129e-01 5.73499680e-01
9.31972206e-01 -5.97272336e-01 3.53472263e-01 -5.97272336e-01 -4.59054053e-01 -1.45374215e+00 3.53472263e-01 -1.45374215e+00 -9.44865227e-01
4.10970092e-01 -1.70722139e+00 -1.27992928e+00 -1.70722139e+00 5.35574019e-01 1.31501102e+00 -1.27992928e+00 1.31501102e+00 -1.41849387e+00
7.09272485e+00 2.54820061e+00 1.59822297e+00 2.54820061e+00 -2.99833655e+00 9.79631758e-01 1.59822297e+00 9.79631758e-01 -7.06944713e-01
1.16722843e+00 -4.33949312e-01 -2.40057220e-01 -4.33949312e-01 -5.11646481e+00 8.97974292e-01 -2.40057220e-01 8.97974292e-01 -8.59903150e-01
-3.61489201e+00 9.17828798e-01 5.16826883e-02 9.17828798e-01 9.01592284e-01 -1.52441800e+00 5.16826883e-02 -1.52441800e+00 4.97883990e-01
-5.18880967e+00 -2.35600392e+00 -3.67432545e-01 -2.35600392e+00 2.43488006e+00 -6.25507394e-01 -3.67432545e-01 -6.25507394e-01 3.39979096e+00
2.14607501e+00 -3.48045826e-02 3.89105547e-03 -3.48045826e-02 -9.35786605e-01 3.14297620e-03 3.89105547e-03 3.14297620e-03 -2.85268307e+01
-5.87741733e-01 2.49161966e-01 -1.33316885e-02 2.49161966e-01 -2.24202335e+00 2.73719467e-01 -1.33316885e-02 2.73719467e-01 -3.30123711e+01
1.55434036e+00 8.89757164e-01 2.09846534e-01 8.89757164e-01 -4.82916832e-01 3.44367165e-01 2.09846534e-01 3.44367165e-01 -2.87178841e+01
9.27428722e-01 3.69589828e-01 1.30376048e-01 3.69589828e-01 -2.63965797e+00 -7.19002960e-03 1.30376048e-01 -7.19002960e-03 -3.16493340e+01
-8.65278137e+00 5.88082239e-01 -8.55597015e-03 5.88082239e-01 -6.44532669e+00 1.04806012e+00 -8.55597015e-03 1.04806012e+00 -4.61871204e+01
-6.52561267e+00 1.96664816e+00 2.45854367e-01 1.96664816e+00 -5.38415354e+00 6.42828134e-01 2.45854367e-01 6.42828134e-01 -4.26325572e+01
-1.16634269e+01 1.28963631e+00 2.95888875e-02 1.28963631e+00 -7.59102750e+00 5.60586005e-01 2.95888875e-02 5.60586005e-01 -5.05984745e+01
-2.28808812e+01 1.68738243e+00 1.17667919e+00 1.68738243e+00 -1.38174653e+01 1.96603274e+00 1.17667919e+00 1.96603274e+00 -6.85356479e+01