<VTKFile type="UnstructuredGrid" version="0.1" byte_order="LittleEndian">
<UnstructuredGrid>
<Piece NumberOfPoints="191" NumberOfCells="79">
<Points>
<DataArray type="Float64" NumberOfComponents="3" format="ascii">
 1.00187230e+00  5.02113914e+00  1.99208915e+00
 2.00388169e+00  5.02045488e+00  1.99490643e+00
 2.00338650e+00  6.02413368e+00  1.99205220e+00
 1.00109994e+00  6.02346134e+00  1.99011517e+00
 1.00149465e+00  5.02323437e+00  2.98857737e+00
 2.00376940e+00  5.02377129e+00  2.98872972e+00
 2.00218678e+00  6.02877378e+00  2.98516226e+00
 1.00106740e+00  6.02469492e+00  2.98779058e+00
 3.00650525e+00  5.01955986e+00  1.99621153e+00
 3.00705838e+00  6.02345085e+00  1.99312913e+00
 3.00827360e+00  5.02135944e+00  2.98929191e+00
 3.01422763e+00  6.03236866e+00  2.97278237e+00
 5.00671768e+00  5.02249098e+00  2.00000715e+00
 6.00672483e+00  5.02404213e+00  1.99995935e+00
 6.00515032e+00  6.02406073e+00  2.00002098e+00
 5.00513411e+00  6.02249336e+00  2.00004220e+00
 5.00675297e+00  5.02243996e+00  2.99999189e+00
 6.00674438e+00  5.02401447e+00  2.99997091e+00
 6.00517702e+00  6.02400255e+00  3.00000906e+00
 5.00518799e+00  6.02243280e+00  3.00005364e+00
 0.00000000e+00  0.00000000e+00  2.97209883e+00
 1.00515628e+00  0.00000000e+00  2.97128391e+00
 1.00504339e+00  1.00526941e+00  2.97321606e+00
 0.00000000e+00  1.00528109e+00  2.97415614e+00
 0.00000000e+00  0.00000000e+00  3.96252799e+00
 1.00750327e+00  0.00000000e+00  3.96241879e+00
 1.00757110e+00  1.00463128e+00  3.96257806e+00
 0.00000000e+00  1.00456536e+00  3.96402740e+00
 2.01129580e+00  0.00000000e+00  2.96833181e+00
 2.00986767e+00  1.00389111e+00  2.97125149e+00
 2.01444340e+00  0.00000000e+00  3.96091700e+00
 2.01481032e+00  1.00484776e+00  3.95982790e+00
 3.01699328e+00  0.00000000e+00  2.96564102e+00
 3.01704478e+00  1.00276399e+00  2.96669102e+00
 3.02112007e+00  0.00000000e+00  3.95761895e+00
 3.02087092e+00  1.00438797e+00  3.95710635e+00
 4.02384186e+00  0.00000000e+00  2.96291018e+00
 4.02385521e+00  1.00301981e+00  2.96175408e+00
 4.02658939e+00  0.00000000e+00  3.95492530e+00
 4.02662182e+00  1.00345063e+00  3.95355034e+00
 5.02960873e+00  0.00000000e+00  2.95916629e+00
 5.03018332e+00  1.00347471e+00  2.95976067e+00
 5.03106451e+00  0.00000000e+00  3.95380116e+00
 5.03125811e+00  1.00280643e+00  3.95134783e+00
 6.03408623e+00  0.00000000e+00  2.95751333e+00
 6.03518867e+00  1.00263155e+00  2.95838737e+00
 6.03424740e+00  0.00000000e+00  3.95329475e+00
 6.03554821e+00  1.00198948e+00  3.95139027e+00
 1.00299489e+00  2.00975180e+00  2.97778344e+00
 0.00000000e+00  2.01163673e+00  2.97853899e+00
 1.00749898e+00  2.01046705e+00  3.96833801e+00
 0.00000000e+00  2.01062107e+00  3.96909070e+00
 2.00862288e+00  2.00917411e+00  2.97119188e+00
 2.01592779e+00  2.01066732e+00  3.96174479e+00
 3.01514006e+00  2.01056099e+00  2.96370625e+00
 3.02169824e+00  2.00965500e+00  3.95071530e+00
 4.02454281e+00  2.01211405e+00  2.96348166e+00
 4.02579069e+00  2.00756264e+00  3.94820547e+00
 5.03179455e+00  2.00993419e+00  2.96158671e+00
 5.03185034e+00  2.00883913e+00  3.94977975e+00
 6.03749132e+00  2.00780487e+00  2.96093535e+00
 6.03798580e+00  2.00719762e+00  3.94976091e+00
 1.00157511e+00  3.01677346e+00  2.98563957e+00
 0.00000000e+00  3.01673412e+00  2.98312664e+00
 1.00530601e+00  3.01695347e+00  3.97292066e+00
 0.00000000e+00  3.01547265e+00  3.97955322e+00
 2.00772452e+00  3.01551723e+00  2.97861457e+00
 2.01715136e+00  3.01797915e+00  3.95831013e+00
 3.00655627e+00  3.01214242e+00  2.93578196e+00
 3.02663898e+00  3.01400900e+00  3.94462276e+00
 1.00126624e+00  4.02040195e+00  2.98898125e+00
 0.00000000e+00  4.02125072e+00  2.98795366e+00
 1.00253963e+00  4.02162790e+00  3.98355842e+00
 0.00000000e+00  4.02104473e+00  3.98433328e+00
 0.00000000e+00  5.02226400e+00  2.98920488e+00
 1.00307667e+00  5.02576160e+00  3.98608017e+00
 0.00000000e+00  5.02408457e+00  3.98389387e+00
 2.00346541e+00  4.02043915e+00  2.99362016e+00
 2.00893545e+00  4.02323866e+00  3.97936702e+00
 2.00987196e+00  5.02544022e+00  3.98297167e+00
 0.00000000e+00  6.02486753e+00  2.98595190e+00
 1.00541651e+00  6.03331995e+00  3.97429132e+00
 0.00000000e+00  6.03345919e+00  3.97882652e+00
 2.01184392e+00  6.03731060e+00  3.97081542e+00
 3.01997185e+00  5.02193832e+00  3.95441318e+00
 3.02802444e+00  6.03060961e+00  3.95876408e+00
 0.00000000e+00  0.00000000e+00  4.95111322e+00
 1.00969398e+00  0.00000000e+00  4.95031214e+00
 1.01031601e+00  1.00487733e+00  4.95176077e+00
 0.00000000e+00  1.00453508e+00  4.95184422e+00
 2.01767302e+00  0.00000000e+00  4.94938087e+00
 2.01890635e+00  1.00601840e+00  4.94994164e+00
 3.02373838e+00  0.00000000e+00  4.94841003e+00
 3.02449679e+00  1.00666893e+00  4.94725895e+00
 4.02813053e+00  0.00000000e+00  4.94676208e+00
 4.02811432e+00  1.00593758e+00  4.94598866e+00
 5.03178358e+00  0.00000000e+00  4.94646311e+00
 5.03135681e+00  1.00479126e+00  4.94545412e+00
 6.03497124e+00  0.00000000e+00  4.94659615e+00
 6.03524113e+00  1.00473368e+00  4.94584322e+00
 1.01266527e+00  2.01157737e+00  4.95194864e+00
 0.00000000e+00  2.00967383e+00  4.95517921e+00
 2.02188587e+00  2.01279950e+00  4.94787836e+00
 3.02702618e+00  2.01210117e+00  4.94436598e+00
 4.02924442e+00  2.01047421e+00  4.94113016e+00
 5.03105402e+00  2.00871658e+00  4.93957520e+00
 6.03303480e+00  2.00838590e+00  4.93996286e+00
 1.01350844e+00  3.01475310e+00  4.96349573e+00
 0.00000000e+00  3.01749492e+00  4.96744204e+00
 2.02517462e+00  3.01591468e+00  4.94664001e+00
 3.03080487e+00  3.01458931e+00  4.93929434e+00
 4.02825594e+00  3.00507331e+00  3.93265557e+00
 4.03217030e+00  3.01232171e+00  4.93794632e+00
 1.01177752e+00  4.01844072e+00  4.97735310e+00
 0.00000000e+00  4.01599598e+00  4.97365379e+00
 2.02828288e+00  4.02248764e+00  4.94968128e+00
 1.01220942e+00  5.03119755e+00  4.96442080e+00
 0.00000000e+00  5.03195715e+00  4.96727991e+00
 1.01361489e+00  6.04683161e+00  4.96121073e+00
 0.00000000e+00  6.04598379e+00  4.96111584e+00
 2.02259064e+00  5.02738667e+00  4.95688295e+00
 2.03179193e+00  6.03922224e+00  4.95614052e+00
 3.03140998e+00  5.02003479e+00  4.94150448e+00
 3.04090738e+00  6.02245808e+00  4.94435358e+00
 4.01880121e+00  5.01610184e+00  3.92927766e+00
 4.02931356e+00  6.01662064e+00  3.93390393e+00
 4.03683853e+00  5.01272535e+00  4.93751717e+00
 4.04058981e+00  6.01384258e+00  4.93790960e+00
 5.03718615e+00  5.01018047e+00  3.93783712e+00
 6.03718901e+00  5.00747919e+00  3.93782520e+00
 6.03987265e+00  6.00749683e+00  3.93781781e+00
 5.03982973e+00  6.01021624e+00  3.93790221e+00
 5.03718519e+00  5.01018000e+00  4.93784618e+00
 6.03720999e+00  5.00751114e+00  4.93783474e+00
 6.03988028e+00  6.00748968e+00  4.93782043e+00
 5.03998280e+00  6.01010036e+00  4.93789387e+00
 0.00000000e+00  0.00000000e+00  5.93784523e+00
 1.01044405e+00  0.00000000e+00  5.93784523e+00
 1.01176298e+00  1.00584877e+00  5.93784523e+00
 0.00000000e+00  1.00469697e+00  5.93784523e+00
 2.01916575e+00  0.00000000e+00  5.93784523e+00
 2.02022934e+00  1.00714993e+00  5.93784523e+00
 3.02470994e+00  0.00000000e+00  5.93784523e+00
 3.02581716e+00  1.00753772e+00  5.93784523e+00
 4.02835321e+00  0.00000000e+00  5.93784523e+00
 4.02900219e+00  1.00756395e+00  5.93784523e+00
 5.03205729e+00  0.00000000e+00  5.93784523e+00
 5.03137016e+00  1.00683618e+00  5.93784523e+00
 6.03624964e+00  0.00000000e+00  5.93784523e+00
 6.03418446e+00  1.00757635e+00  5.93784523e+00
 1.01473510e+00  2.00953531e+00  5.93784523e+00
 0.00000000e+00  2.00902629e+00  5.93784523e+00
 2.02447820e+00  2.01251411e+00  5.93784523e+00
 3.02865076e+00  2.01338863e+00  5.93784523e+00
 4.03078556e+00  2.01198602e+00  5.93784523e+00
 5.03107834e+00  2.01006198e+00  5.93784523e+00
 6.03170204e+00  2.00921965e+00  5.93784523e+00
 1.01885045e+00  3.02406859e+00  5.93784523e+00
 0.00000000e+00  3.02616382e+00  5.93784523e+00
 2.02994347e+00  3.01864195e+00  5.93784523e+00
 3.03223491e+00  3.01543665e+00  5.93784523e+00
 4.03227282e+00  3.01245308e+00  5.93784523e+00
 5.03237963e+00  3.00987720e+00  4.93763781e+00
 5.03251410e+00  3.01006937e+00  5.93784523e+00
 6.03259325e+00  3.00818181e+00  4.93769741e+00
 6.03254271e+00  3.00848365e+00  5.93784523e+00
 3.03494120e+00  4.01512671e+00  4.93610001e+00
 3.03548670e+00  4.01570511e+00  5.93784523e+00
 2.03619552e+00  4.02011919e+00  5.93784523e+00
 4.03474283e+00  4.01235104e+00  4.93802309e+00
 4.03468895e+00  4.01245975e+00  5.93784523e+00
 5.03453445e+00  4.01021290e+00  4.93784571e+00
 5.03457403e+00  4.01016426e+00  5.93784523e+00
 6.03456545e+00  4.00783730e+00  4.93782234e+00
 6.03455019e+00  4.00775051e+00  5.93784523e+00
 0.00000000e+00  4.00681019e+00  5.93784523e+00
 1.02857637e+00  4.01126909e+00  5.93784523e+00
 1.01898396e+00  5.03743458e+00  5.93784523e+00
 0.00000000e+00  5.03770638e+00  5.93784523e+00
 5.03711510e+00  5.01015902e+00  5.93784523e+00
 4.03702593e+00  5.01291227e+00  5.93784523e+00
 6.03723574e+00  5.00754404e+00  5.93784523e+00
 1.02068293e+00  6.04911470e+00  5.93784523e+00
 0.00000000e+00  6.05333900e+00  5.93784523e+00
 2.02700686e+00  5.02799082e+00  5.93784523e+00
 2.03948832e+00  6.03688717e+00  5.93784523e+00
 3.03497267e+00  5.01848078e+00  5.93784523e+00
 3.04347897e+00  6.02059841e+00  5.93784523e+00
 4.04092693e+00  6.01323509e+00  5.93784523e+00
 5.03997278e+00  6.01003647e+00  5.93784523e+00
 6.03988028e+00  6.00751114e+00  5.93784523e+00
</DataArray>
</Points>
<PointData Tensors="Stress_Components,Plastic_strain_components" Vevtors="Spatial_displacement,Reaction_force" Scalars="Equivalent_plastic_strain,Stress_Mises,Stress_Max_Principal,Stress_Mid_Principal,Stress_Min_Principal,Stress_Pressure,Stress_Tresca,Stress_Third_Invariant,Plastic_strain_Max_Principal,Plastic_strain_Min_Principal">
<DataArray type="Float32" Name="Stress_Components" NumberOfComponents="9" format="ascii">
1.77325366e+00 -2.48659976e+00 6.38592644e-01 -2.48659976e+00 9.35557429e-01 2.24731638e+00 6.38592644e-01 2.24731638e+00 -2.55663710e+01
6.75216414e-01 -2.46900337e+00 4.93911469e-01 -2.46900337e+00 2.12752726e-01 2.52265432e+00 4.93911469e-01 2.52265432e+00 -2.68495880e+01
-2.07550335e+00 -1.06511548e-01 1.27066611e+00 -1.06511548e-01 9.57263649e-01 -8.35664310e-02 1.27066611e+00 -8.35664310e-02 -3.18272336e+01
-9.36073452e-01 9.13503403e-02 -1.26736195e+00 9.13503403e-02 2.59571761e+00 -6.47333622e-01 -1.26736195e+00 -6.47333622e-01 -2.80574703e+01
8.37018396e+00 1.25081266e+00 3.03222737e+00 1.25081266e+00 9.98874006e+00 -1.24729684e-01 3.03222737e+00 -1.24729684e-01 -1.03097115e+01
6.16190422e+00 -1.01289247e+00 -1.13347634e+00 -1.01289247e+00 8.58512998e+00 2.13479475e+00 -1.13347634e+00 2.13479475e+00 -1.52666356e+01
-4.67921761e+00 1.63723822e+00 1.81637833e+00 1.63723822e+00 -3.03550116e+00 -2.88517854e+00 1.81637833e+00 -2.88517854e+00 -3.56380129e+01
-2.29558235e+00 2.58194704e+00 4.29490483e+00 2.58194704e+00 -2.18188405e-01 2.57561296e+00 4.29490483e+00 2.57561296e+00 -2.92511353e+01
1.51695149e+00 4.59277980e-01 -3.52528203e+00 4.59277980e-01 4.77104276e-01 3.38248426e+00 -3.52528203e+00 3.38248426e+00 -2.79982819e+01
-1.49390607e+01 4.08305176e-01 1.64331263e+00 4.08305176e-01 -1.35647049e+01 5.60073733e+00 1.64331263e+00 5.60073733e+00 -6.13146400e+01
-2.20491527e+01 3.51908159e+00 -1.43741217e+01 3.51908159e+00 -2.05887875e+01 3.60284197e+00 -1.43741217e+01 3.60284197e+00 -7.03679174e+01
-1.99521921e+01 6.71495175e+00 -9.72495008e+00 6.71495175e+00 -2.46510596e+01 -2.53243465e+00 -9.72495008e+00 -2.53243465e+00 -7.45442467e+01
1.03376910e-01 -6.69635206e-01 7.20434934e-02 -6.69635206e-01 -9.07533467e-02 -1.07124899e-01 7.20434934e-02 -1.07124899e-01 -3.63688655e-01
-2.47551411e-01 -4.86796528e-01 -3.06947708e-01 -4.86796528e-01 2.42485322e-01 -1.24464273e-01 -3.06947708e-01 -1.24464273e-01 -3.46012163e-01
1.92047929e-01 -1.44702055e-01 3.51920284e-01 -1.44702055e-01 3.16236824e-01 2.05753714e-01 3.51920284e-01 2.05753714e-01 -8.59349251e-01
1.62116542e-01 -3.27600747e-01 -2.36336991e-01 -3.27600747e-01 -3.97752330e-01 -2.48678565e-01 -2.36336991e-01 -2.48678565e-01 -1.15453884e-01
1.66204408e-01 2.07463339e-01 2.22129345e-01 2.07463339e-01 2.32178330e-01 2.93792009e-01 2.22129345e-01 2.93792009e-01 -1.58130556e-01
-1.33702487e-01 1.56958655e-01 2.26397336e-01 1.56958655e-01 -2.79341638e-01 -3.25460806e-02 2.26397336e-01 -3.25460806e-02 6.53302073e-01
1.22504205e-01 5.11552691e-02 -4.20276254e-01 5.11552691e-02 7.79724196e-02 -3.76020640e-01 -4.20276254e-01 -3.76020640e-01 3.97997759e-02
-2.72144616e-01 1.01629071e-01 2.28673052e-02 1.01629071e-01 -1.05135694e-01 1.84469029e-01 2.28673052e-02 1.84469029e-01 6.17520392e-01
4.14886862e-01 -5.92861325e-05 2.00429440e+00 -5.92861325e-05 8.16155605e-01 -4.94261011e-01 2.00429440e+00 -4.94261011e-01 -2.85049067e+01
7.40349397e-01 7.61514320e-03 1.59516448e+00 7.61514320e-03 2.20774218e-01 1.66705512e-01 1.59516448e+00 1.66705512e-01 -2.88060694e+01
3.71137102e-01 -1.63397802e+00 2.15750254e+00 -1.63397802e+00 4.10739598e-01 6.11845084e-01 2.15750254e+00 6.11845084e-01 -2.86482875e+01
-6.00145832e-01 9.03031789e-02 2.03370936e+00 9.03031789e-02 8.72598529e-01 -9.83193040e-01 2.03370936e+00 -9.83193040e-01 -2.94693050e+01
2.30230415e+00 -5.12187602e-04 1.39486849e+00 -5.12187602e-04 -2.45259589e+00 -5.25577292e-02 1.39486849e+00 -5.25577292e-02 -2.97634706e+01
1.47335836e+00 6.26020040e-02 3.47966500e-01 6.26020040e-02 -2.59139991e+00 1.36320463e+00 3.47966500e-01 1.36320463e+00 -3.08439727e+01
1.32399549e+00 1.12740496e-01 2.09230949e+00 1.12740496e-01 -2.13033725e+00 5.79687349e-01 2.09230949e+00 5.79687349e-01 -3.02096796e+01
7.32696287e-01 1.08537165e-01 2.26202033e+00 1.08537165e-01 -2.84718832e+00 -1.06806491e+00 2.26202033e+00 -1.06806491e+00 -3.16434627e+01
2.49804698e+00 -1.56144160e+00 2.52522725e+00 -1.56144160e+00 -1.18013880e+00 1.92216229e-01 2.52522725e+00 1.92216229e-01 -2.79812684e+01
1.55467059e+00 -2.49595670e+00 1.59303662e+00 -2.49595670e+00 -8.81755089e-01 7.35453442e-01 1.59303662e+00 7.35453442e-01 -2.84990027e+01
1.59555060e+00 4.10638534e-01 -5.97046047e-01 4.10638534e-01 -1.63755356e+00 7.80159321e-01 -5.97046047e-01 7.80159321e-01 -2.98915763e+01
-5.90929314e-02 4.82209668e-01 1.36323523e+00 4.82209668e-01 -2.01353247e+00 1.87244618e+00 1.36323523e+00 1.87244618e+00 -3.20497780e+01
4.33723581e+00 1.00884063e-01 9.45965216e-01 1.00884063e-01 -2.36798334e+00 1.21304417e+00 9.45965216e-01 1.21304417e+00 -2.70560455e+01
1.86274017e+00 -1.12903599e+00 -6.05671525e-01 -1.12903599e+00 -1.60553319e+00 -8.62175196e-01 -6.05671525e-01 -8.62175196e-01 -2.90248940e+01
2.11312018e+00 -4.09090206e-01 -2.57511213e-01 -4.09090206e-01 -1.02324117e+00 7.01784912e-01 -2.57511213e-01 7.01784912e-01 -2.87195272e+01
-2.36233689e-01 -4.96822931e-01 -1.00381285e+00 -4.96822931e-01 -2.15882159e+00 6.08173836e-01 -1.00381285e+00 6.08173836e-01 -3.23037288e+01
5.50820175e+00 1.17460253e-01 -1.09764077e+00 1.17460253e-01 -1.28286071e+00 -3.43046889e-01 -1.09764077e+00 -3.43046889e-01 -2.47029831e+01
-8.55805930e-01 5.68481207e-01 -8.69616710e-01 5.68481207e-01 -2.75524524e+00 -1.01654701e-01 -8.69616710e-01 -1.01654701e-01 -3.33880713e+01
2.44156718e+00 -9.06015350e-03 -1.55450836e+00 -9.06015350e-03 -9.53314140e-01 5.19357353e-01 -1.55450836e+00 5.19357353e-01 -2.81769686e+01
3.11803249e+00 -1.31936312e+00 -1.69133201e+00 -1.31936312e+00 2.20973872e-01 -9.21484588e-01 -1.69133201e+00 -9.21484588e-01 -2.59242193e+01
5.71925926e+00 6.00576729e-01 8.76276299e-01 6.00576729e-01 1.68867600e+00 -1.09785461e+00 8.76276299e-01 -1.09785461e+00 -2.16783495e+01
1.30860717e+00 7.05279000e-01 -1.22181280e-03 7.05279000e-01 -6.14517599e-01 1.84525806e-01 -1.22181280e-03 1.84525806e-01 -2.91294577e+01
3.82743336e+00 1.76389214e-01 -3.23989743e+00 1.76389214e-01 1.11095314e+00 3.73530731e-01 -3.23989743e+00 3.73530731e-01 -2.40085602e+01
1.28612538e+00 -4.78068253e-01 -1.65926476e+00 -4.78068253e-01 7.94319317e-01 -6.75463576e-01 -1.65926476e+00 -6.75463576e-01 -2.72916024e+01
7.52870917e+00 1.11486441e+00 1.18776500e+00 1.11486441e+00 2.79225588e+00 -1.39296678e+00 1.18776500e+00 -1.39296678e+00 -1.82009816e+01
5.09565582e+00 6.18530639e-01 3.30958236e-02 6.18530639e-01 2.45863849e+00 -9.91964266e-01 3.30958236e-02 -9.91964266e-01 -2.16264911e+01
5.79191232e+00 1.96916407e+00 -2.80921829e+00 1.96916407e+00 2.35282439e+00 -4.24519245e-01 -2.80921829e+00 -4.24519245e-01 -2.04652176e+01
3.87602845e+00 1.19123626e+00 -9.32699442e-01 1.19123626e+00 1.73842545e+00 -1.09335430e-01 -9.32699442e-01 -1.09335430e-01 -2.34920180e+01
-1.43390437e+00 -2.83464110e+00 4.71986994e+00 -2.83464110e+00 1.62554660e+00 -5.44651598e-01 4.71986994e+00 -5.44651598e-01 -2.67020197e+01
-1.18483549e+00 -1.87906063e+00 3.26261622e+00 -1.87906063e+00 4.21100378e+00 -5.32186605e-01 3.26261622e+00 -5.32186605e-01 -2.55489750e+01
-2.19703516e+00 -6.81529440e-01 5.02697331e+00 -6.81529440e-01 -5.23494965e+00 1.27809791e+00 5.02697331e+00 1.27809791e+00 -3.63742089e+01
1.25818331e-01 -1.43647596e-01 4.90530908e+00 -1.43647596e-01 -2.68956703e+00 -5.27286030e-01 4.90530908e+00 -5.27286030e-01 -3.11861415e+01
-1.84179579e-01 -5.80646157e-01 2.34054383e+00 -5.80646157e-01 -1.09509722e+00 -1.16097196e+00 2.34054383e+00 -1.16097196e+00 -3.25004033e+01
-3.09968859e-01 7.25344810e-01 1.34780052e+00 7.25344810e-01 -1.21829447e+00 -1.49796369e+00 1.34780052e+00 -1.49796369e+00 -3.14517901e+01
-1.66120405e+01 -1.39381593e+00 -8.10461817e+00 -1.39381593e+00 -1.74029877e+01 1.07553148e-01 -8.10461817e+00 1.07553148e-01 -6.27935394e+01
-2.01743733e-01 1.29942068e+00 -5.30451546e+00 1.29942068e+00 -5.21640028e-01 -5.51691498e-01 -5.30451546e+00 -5.51691498e-01 -2.89357297e+01
-1.30087490e+01 2.08654851e-01 -2.18494055e+00 2.08654851e-01 -1.11546384e+01 1.80254764e+00 -2.18494055e+00 1.80254764e+00 -5.59962301e+01
-4.89361295e+00 -7.49735087e-01 -9.13327894e+00 -7.49735087e-01 -1.02579080e+01 2.01606162e+00 -9.13327894e+00 2.01606162e+00 -4.10938606e+01
-6.23907864e+00 -3.78295265e-01 -7.35078543e-01 -3.78295265e-01 -5.96601331e+00 9.75837454e-01 -7.35078543e-01 9.75837454e-01 -4.30891981e+01
-8.19223166e+00 4.44952101e-01 -2.60556102e+00 4.44952101e-01 -7.80139142e+00 3.63724306e-02 -2.60556102e+00 3.63724306e-02 -4.74900970e+01
-8.18660259e-01 1.88491412e-01 -5.84995806e-01 1.88491412e-01 -1.19057816e+00 2.07245737e-01 -5.84995806e-01 2.07245737e-01 -3.20418558e+01
-6.69847143e+00 8.90607446e-01 -1.80044085e+00 8.90607446e-01 -7.95907307e+00 -3.03334528e+00 -1.80044085e+00 -3.03334528e+00 -4.51556053e+01
-5.60575804e+00 -1.55232816e+00 6.11324181e+00 -1.55232816e+00 -8.90631169e-01 9.89131757e-02 6.11324181e+00 9.89131757e-02 -3.22277331e+01
1.76582569e+00 4.36666429e-01 4.33270198e+00 4.36666429e-01 8.81229892e+00 2.13028991e+00 4.33270198e+00 2.13028991e+00 -1.62716908e+01
1.72804976e+00 -8.29174748e-01 4.73123911e+00 -8.29174748e-01 -9.49846540e-01 -1.81661819e+00 4.73123911e+00 -1.81661819e+00 -2.70901398e+01
2.83345081e+00 8.46088558e-01 5.91624141e+00 8.46088558e-01 3.24819273e+00 -3.81970680e+00 5.91624141e+00 -3.81970680e+00 -2.04651806e+01
-2.64983945e+01 -4.26859605e+00 1.02241932e+01 -4.26859605e+00 -2.38124762e+01 -9.65115720e+00 1.02241932e+01 -9.65115720e+00 -7.59228039e+01
-7.73647708e+00 -7.23072267e-01 3.27899432e-01 -7.23072267e-01 -1.44521747e+01 -4.53871746e+00 3.27899432e-01 -4.53871746e+00 -5.20645035e+01
-2.82752495e+01 -9.20913792e+00 -2.61693096e+01 -9.20913792e+00 -2.54880199e+01 -1.72441368e+01 -2.61693096e+01 -1.72441368e+01 -1.87278576e+01
1.83933611e+01 -1.08171602e+00 -3.18841648e+00 -1.08171602e+00 1.78636211e+01 -4.64677000e+00 -3.18841648e+00 -4.64677000e+00 7.70998319e+00
6.06136650e-01 -8.34265632e-01 3.04820275e+00 -8.34265632e-01 5.22301778e+00 3.80835697e+00 3.04820275e+00 3.80835697e+00 -2.13460872e+01
1.57836586e+00 -1.54668942e+00 5.90762025e+00 -1.54668942e+00 6.01203448e+00 8.38998728e-01 5.90762025e+00 8.38998728e-01 -1.76356630e+01
8.53616881e+00 -9.42892091e-02 4.53743841e+00 -9.42892091e-02 1.00261582e+01 1.01442054e+00 4.53743841e+00 1.01442054e+00 -6.75786853e+00
1.10308355e+01 5.54822218e-02 9.44337085e-01 5.54822218e-02 1.39327859e+01 8.66374336e-02 9.44337085e-01 8.66374336e-02 -3.20147181e+00
3.96988153e+00 1.96647292e+00 3.38335633e-02 1.96647292e+00 6.14674574e+00 -1.20904139e+00 3.38335633e-02 -1.20904139e+00 -1.76478300e+01
-1.26519429e+00 2.35531310e+00 -2.46942690e-01 2.35531310e+00 4.46818905e-01 3.43921460e+00 -2.46942690e-01 3.43921460e+00 -2.71721578e+01
1.84882739e+00 1.55917650e+00 8.44945043e-01 1.55917650e+00 6.52152049e+00 1.75154860e+00 8.44945043e-01 1.75154860e+00 -1.99116204e+01
-1.35744256e+01 -2.06765279e-01 1.09737968e+00 -2.06765279e-01 -6.50879943e+00 1.11726469e+01 1.09737968e+00 1.11726469e+01 -3.65268564e+01
-2.65857897e+01 -1.50446248e+00 1.24135380e+01 -1.50446248e+00 -3.48742971e+01 6.32977062e+00 1.24135380e+01 6.32977062e+00 -9.14731636e+01
-1.07162167e+01 -5.06931138e-01 -3.82785959e+00 -5.06931138e-01 -9.26149485e+00 -1.83565674e+00 -3.82785959e+00 -1.83565674e+00 -4.72998425e+01
-3.39622056e+00 -3.15362208e-01 1.98173213e+00 -3.15362208e-01 2.50669574e+00 3.27258396e+00 1.98173213e+00 3.27258396e+00 -2.93649187e+01
3.34529090e+00 2.23611201e+00 -1.11716116e+00 2.23611201e+00 5.11780858e+00 1.00566657e+00 -1.11716116e+00 1.00566657e+00 -2.17649595e+01
-6.20670009e+00 -8.87766361e-01 3.88756216e+00 -8.87766361e-01 8.09460521e-01 -2.87097687e+00 3.88756216e+00 -2.87097687e+00 -3.48391075e+01
-7.07723705e+00 -3.49112332e-01 -3.61097652e+00 -3.49112332e-01 -6.52545679e+00 5.05223322e+00 -3.61097652e+00 5.05223322e+00 -4.17582016e+01
-2.20507846e+01 3.46911852e+00 1.33122018e+00 3.46911852e+00 -1.62070607e+01 -1.46053290e+01 1.33122018e+00 -1.46053290e+01 -6.58616657e+01
-6.28858423e+00 -1.36635102e+00 -2.23101979e+00 -1.36635102e+00 -7.37115510e+00 -3.97250422e+00 -2.23101979e+00 -3.97250422e+00 -4.27881699e+01
2.03150517e+00 -9.97354742e-04 4.32277143e-01 -9.97354742e-04 -5.61026764e+00 -6.16657227e-01 4.32277143e-01 -6.16657227e-01 -3.29146223e+01
9.44605269e-01 4.60573986e-01 1.02049263e+00 4.60573986e-01 -4.92815012e+00 5.75876398e-01 1.02049263e+00 5.75876398e-01 -3.36530747e+01
1.01656466e+00 1.63025190e+00 1.18268418e+00 1.63025190e+00 -4.22268842e+00 8.90871469e-01 1.18268418e+00 8.90871469e-01 -3.27046423e+01
2.05348996e+00 2.44374257e-01 1.34441099e+00 2.44374257e-01 -5.50894636e+00 -2.35609434e-02 1.34441099e+00 -2.35609434e-02 -3.27392855e+01
-1.69103593e+00 1.14777112e+00 2.99716368e-01 1.14777112e+00 -2.94430505e+00 1.39182904e+00 2.99716368e-01 1.39182904e+00 -3.47914786e+01
-1.15450230e+00 2.48631525e+00 5.15007492e-01 2.48631525e+00 -1.80905011e+00 5.39458979e-01 5.15007492e-01 5.39458979e-01 -3.25758982e+01
-3.01481353e+00 7.81316325e-01 -9.20530349e-01 7.81316325e-01 -8.58728476e-02 4.10482636e-01 -9.20530349e-01 4.10482636e-01 -3.31867275e+01
-2.99493438e+00 1.58412887e+00 -3.40833589e-01 1.58412887e+00 3.46400412e-01 8.96359126e-01 -3.40833589e-01 8.96359126e-01 -3.23147192e+01
-2.29245793e+00 -1.04898401e-01 -5.02718821e-01 -1.04898401e-01 1.82122055e+00 1.60974930e-02 -5.02718821e-01 1.60974930e-02 -3.03389935e+01
-2.04405442e+00 -3.64897038e-01 -7.78137594e-01 -3.64897038e-01 2.32168805e+00 3.00638044e-01 -7.78137594e-01 3.00638044e-01 -2.91732895e+01
-8.15662041e-01 -6.18983418e-01 -1.11261043e+00 -6.18983418e-01 2.56226103e+00 5.72515562e-01 -1.11261043e+00 5.72515562e-01 -2.79539618e+01
-1.28182475e-01 -1.34918451e+00 -2.06465252e+00 -1.34918451e+00 1.96582770e+00 -1.86779048e-01 -2.06465252e+00 -1.86779048e-01 -2.73348639e+01
-7.64874041e-01 3.74893934e-01 -9.79521930e-01 3.74893934e-01 3.44901431e+00 1.19675568e+00 -9.79521930e-01 1.19675568e+00 -2.69460621e+01
-6.24358058e-02 -1.62502874e+00 -1.09008813e+00 -1.62502874e+00 7.29082763e-01 -7.34433532e-01 -1.09008813e+00 -7.34433532e-01 -2.89001012e+01
6.11137398e-01 2.12263114e+00 2.60370168e+00 2.12263114e+00 -6.43344823e+00 5.24582952e-01 2.60370168e+00 5.24582952e-01 -3.46027274e+01
-2.24305570e-01 1.26836270e+00 3.72137687e+00 1.26836270e+00 -8.11573350e+00 -1.66272041e+00 3.72137687e+00 -1.66272041e+00 -3.69478121e+01
1.55065575e+00 2.59048977e+00 -4.18509888e-01 2.59048977e+00 -9.58491645e-01 5.42841312e-01 -4.18509888e-01 5.42841312e-01 -2.88172795e+01
3.19241767e+00 2.38848941e+00 -2.55941764e+00 2.38848941e+00 4.14695048e+00 -6.87640309e-02 -2.55941764e+00 -6.87640309e-02 -2.04693472e+01
1.98968365e+00 1.00881511e+00 -3.12813810e+00 1.00881511e+00 5.82799793e+00 -4.57681896e-01 -3.12813810e+00 -4.57681896e-01 -2.14967128e+01
-5.01882215e-01 -7.22192367e-01 -5.68062586e+00 -7.22192367e-01 2.25786392e+00 -1.98616762e+00 -5.68062586e+00 -1.98616762e+00 -2.60202326e+01
-5.36941965e-01 -4.06677437e+00 -7.57560205e+00 -4.06677437e+00 -4.07714494e+00 -4.61640775e+00 -7.57560205e+00 -4.61640775e+00 -2.88489011e+01
-1.94129650e+00 -4.63024147e-01 8.43030632e+00 -4.63024147e-01 -1.32124029e+01 -1.81270458e+00 8.43030632e+00 -1.81270458e+00 -4.03832734e+01
-8.88373649e+00 -1.90260510e+00 9.56926394e+00 -1.90260510e+00 -2.19872293e+01 -3.18373052e+00 9.56926394e+00 -3.18373052e+00 -5.63399442e+01
4.22523657e+00 2.33206566e+00 8.80984147e-01 2.33206566e+00 -1.43776021e+00 -3.21329967e+00 8.80984147e-01 -3.21329967e+00 -2.58077027e+01
7.78108585e+00 4.06055482e+00 -6.26331210e+00 4.06055482e+00 3.71414057e+00 -2.14636990e+00 -6.26331210e+00 -2.14636990e+00 -1.21988373e+01
-1.36956310e+01 -1.12134228e+01 -1.54638758e+01 -1.12134228e+01 -2.81920471e+01 -1.54313669e+01 -1.54638758e+01 -1.54313669e+01 1.01283419e+00
1.53090321e+01 2.70303554e+00 -3.41734929e+00 2.70303554e+00 1.13226600e+01 -2.48065921e+00 -3.41734929e+00 -2.48065921e+00 5.06409938e+00
-3.57076353e+00 1.05904301e+00 3.13399553e-01 1.05904301e+00 -9.33371711e+00 4.51345122e+00 3.13399553e-01 4.51345122e+00 -3.51505508e+01
3.70304585e-02 1.49391454e+00 -3.65771294e+00 1.49391454e+00 -3.67203010e+00 2.66831446e+00 -3.65771294e+00 2.66831446e+00 -3.20286566e+01
-2.09915318e+01 -5.83221674e-01 2.62368917e+00 -5.83221674e-01 -3.11030397e+01 -7.44415975e+00 2.62368917e+00 -7.44415975e+00 -8.94500694e+01
-6.90738495e+00 -5.27721065e-01 -3.51481844e-01 -5.27721065e-01 -3.49671412e+00 2.52099134e+00 -3.51481844e-01 2.52099134e+00 -4.11789598e+01
-2.36752760e+00 -3.20955567e-01 1.24108262e+00 -3.20955567e-01 4.14339721e-01 -5.68666279e-01 1.24108262e+00 -5.68666279e-01 -3.23814586e+01
-2.36613537e+00 -9.73170027e-01 1.81220321e+00 -9.73170027e-01 -3.51688731e+00 2.16820839e+00 1.81220321e+00 2.16820839e+00 -3.56218758e+01
-2.82488823e-01 2.95063928e-01 2.26303362e+00 2.95063928e-01 -2.11848259e-01 -6.12322628e-01 2.26303362e+00 -6.12322628e-01 -3.02180347e+01
-1.19091735e+01 2.01814875e+00 -7.66530275e-01 2.01814875e+00 -1.07755036e+01 -2.83462333e+00 -7.66530275e-01 -2.83462333e+00 -5.39405172e+01
-2.62477288e+00 -1.87191725e+00 -1.16418875e+00 -1.87191725e+00 -5.20797524e+00 3.36051521e+00 -1.16418875e+00 3.36051521e+00 -3.69305358e+01
1.31244507e+01 2.25794197e+00 1.06812306e+00 2.25794197e+00 4.29172820e+00 7.65559256e-01 1.06812306e+00 7.65559256e-01 -1.48806107e+01
2.08712316e+00 -1.47472221e+00 -6.07038677e-01 -1.47472221e+00 5.00638855e+00 -1.21558952e+00 -6.07038677e-01 -1.21558952e+00 -2.22421263e+01
2.07624683e+01 4.12881947e+00 3.09460282e+00 4.12881947e+00 2.40940628e+01 -5.04941082e+00 3.09460282e+00 -5.04941082e+00 4.58474655e+01
-5.11944406e-02 -3.33726549e+00 3.59538913e+00 -3.33726549e+00 3.25703931e+00 -1.58772688e+01 3.59538913e+00 -1.58772688e+01 1.05494976e+01
4.09767187e+00 -3.29356003e+00 -1.34791653e+00 -3.29356003e+00 2.81067133e-01 4.76492691e+00 -1.34791653e+00 4.76492691e+00 -7.76412487e-01
3.36805534e+00 -6.18656774e+00 -1.87368256e+00 -6.18656774e+00 1.44426667e+01 -3.12391297e+00 -1.87368256e+00 -3.12391297e+00 8.69161638e+00
-7.71954834e-01 -1.19339919e+00 1.34868753e+00 -1.19339919e+00 6.18209660e-01 -2.61429548e-01 1.34868753e+00 -2.61429548e-01 -6.55156910e-01
-5.26672006e-01 -3.55228633e-01 5.16587496e-01 -3.55228633e-01 1.00019127e-01 1.91510171e-01 5.16587496e-01 1.91510171e-01 -3.82233024e-01
6.92754447e-01 -7.36869514e-01 -2.97084063e-01 -7.36869514e-01 -3.57021064e-01 -1.59595263e+00 -2.97084063e-01 -1.59595263e+00 -1.14462411e+00
5.87034822e-01 -1.57545638e+00 -1.05107665e+00 -1.57545638e+00 3.00515234e-01 1.43222713e+00 -1.05107665e+00 1.43222713e+00 -1.69645870e+00
5.88525028e+00 3.00038837e+00 6.27605301e-01 3.00038837e+00 -1.85647690e+00 1.91908666e+00 6.27605301e-01 1.91908666e+00 -3.63042629e-01
7.03209619e-01 -1.51182274e-01 5.63083808e-01 -1.51182274e-01 -5.44991314e+00 2.77506088e-01 5.63083808e-01 2.77506088e-01 -3.91408751e-02
-3.82465923e+00 1.24991822e+00 -1.53087944e-01 1.24991822e+00 -4.71597314e-01 -1.45114154e+00 -1.53087944e-01 -1.45114154e+00 8.62053543e-01
-5.72693908e+00 -2.50375279e+00 -8.76292348e-01 -2.50375279e+00 2.68203982e+00 -1.98851804e-01 -8.76292348e-01 -1.98851804e-01 3.10845250e+00
1.76629245e+00 -5.32546267e-03 5.55448234e-04 -5.32546267e-03 -6.17943668e+00 -5.44208102e-04 5.55448234e-04 -5.44208102e-04 -3.37828140e+01
8.15577991e-01 1.00720814e+00 -3.99389211e-03 1.00720814e+00 -4.48938155e+00 5.06290779e-01 -3.99389211e-03 5.06290779e-01 -3.34674511e+01
2.87985682e-01 2.45473579e+00 7.08370164e-01 2.45473579e+00 -6.83880949e+00 1.07472780e+00 7.08370164e-01 1.07472780e+00 -3.57914577e+01
2.07161438e+00 7.89259315e-01 1.27495751e-01 7.89259315e-01 -7.60467100e+00 -1.10380794e-03 1.27495751e-01 -1.10380794e-03 -3.45257072e+01
-2.28894570e+00 7.64567614e-01 -3.18520283e-03 7.64567614e-01 -1.90912765e+00 1.31519717e+00 -3.18520283e-03 1.31519717e+00 -3.43184834e+01
-2.44759679e+00 2.96206132e+00 8.99780273e-01 2.96206132e+00 -3.19056664e+00 1.01106358e+00 8.99780273e-01 1.01106358e+00 -3.52767024e+01
-5.30612063e+00 1.10556585e+00 5.22165932e-03 1.10556585e+00 4.64135960e-01 9.19041574e-01 5.22165932e-03 9.19041574e-01 -3.45939531e+01
-3.56659337e+00 2.22901350e+00 9.08859879e-01 2.22901350e+00 1.12375042e+00 1.32761618e+00 9.08859879e-01 1.32761618e+00 -3.16950536e+01