<VTKFile type="UnstructuredGrid" version="0.1" byte_order="LittleEndian">
<UnstructuredGrid>
<Piece NumberOfPoints="191" NumberOfCells="79">
<Points>
<DataArray type="Float64" NumberOfComponents="3" format="ascii">
 1.04666960e+00  5.25485039e+00  1.87460804e+00
 2.07761788e+00  5.24190187e+00  1.89737177e+00
 2.07939458e+00  6.30627441e+00  1.85187483e+00
 1.04126048e+00  6.29978085e+00  1.84300542e+00
 1.03790522e+00  5.29376554e+00  2.80779362e+00
 2.08297372e+00  5.28890753e+00  2.81904387e+00
 2.06980896e+00  6.37123823e+00  2.76318908e+00
 1.04146302e+00  6.33813667e+00  2.76982975e+00
 3.13130426e+00  5.22366810e+00  1.92088294e+00
 3.14250851e+00  6.29238367e+00  1.85534012e+00
 3.12547970e+00  5.27993870e+00  2.79594374e+00
 3.18139243e+00  6.34364176e+00  2.71153688e+00
 5.13903093e+00  5.20936918e+00  2.00003386e+00
 6.13903189e+00  5.21065140e+00  2.00003195e+00
 6.13774776e+00  6.21065998e+00  1.99998271e+00
 5.13772011e+00  6.20938396e+00  1.99996555e+00
 5.13901758e+00  5.20943117e+00  3.00002050e+00
 6.13901138e+00  5.21072197e+00  3.00004053e+00
 6.13772202e+00  6.21071291e+00  2.99997330e+00
 5.13773680e+00  6.20942068e+00  2.99997449e+00
 0.00000000e+00  0.00000000e+00  2.71846485e+00
 1.05360723e+00  0.00000000e+00  2.71648097e+00
 1.05689669e+00  1.05892682e+00  2.72235513e+00
 0.00000000e+00  1.05665541e+00  2.72762537e+00
 0.00000000e+00  0.00000000e+00  3.62259340e+00
 1.07198977e+00  0.00000000e+00  3.62347388e+00
 1.07400632e+00  1.05903804e+00  3.62505722e+00
 0.00000000e+00  1.05523491e+00  3.63387346e+00
 2.11905622e+00  0.00000000e+00  2.70202255e+00
 2.10643244e+00  1.05075729e+00  2.71112442e+00
 2.13941956e+00  0.00000000e+00  3.61299849e+00
 2.14249539e+00  1.06241286e+00  3.61265826e+00
 3.17712069e+00  0.00000000e+00  2.68613935e+00
 3.17832327e+00  1.04607677e+00  2.69009137e+00
 3.20803070e+00  0.00000000e+00  3.59583926e+00
 3.20083427e+00  1.05471504e+00  3.59773183e+00
 4.24702978e+00  0.00000000e+00  2.67249918e+00
 4.25006247e+00  1.04778600e+00  2.66749907e+00
 4.26857853e+00  0.00000000e+00  3.58344817e+00
 4.26519728e+00  1.04588103e+00  3.57664680e+00
 5.32092142e+00  0.00000000e+00  2.65580130e+00
 5.32124090e+00  1.05069244e+00  2.65808249e+00
 5.32750368e+00  0.00000000e+00  3.57436228e+00
 5.32645178e+00  1.04508984e+00  3.56232548e+00
 6.38936043e+00  0.00000000e+00  2.65060544e+00
 6.38872766e+00  1.05174720e+00  2.65209413e+00
 6.37526083e+00  0.00000000e+00  3.57082725e+00
 6.39053774e+00  1.04585934e+00  3.56252766e+00
 1.04044318e+00  2.11154151e+00  2.74384165e+00
 0.00000000e+00  2.12673712e+00  2.74731112e+00
 1.07378578e+00  2.11900592e+00  3.64863801e+00
 0.00000000e+00  2.11897850e+00  3.65023851e+00
 2.10656190e+00  2.11382556e+00  2.72203732e+00
 2.15251684e+00  2.12651062e+00  3.62108159e+00
 3.16754198e+00  2.12039232e+00  2.67855334e+00
 3.21129560e+00  2.11987662e+00  3.56405020e+00
 4.24486303e+00  2.13290310e+00  2.66724181e+00
 4.25422573e+00  2.10504866e+00  3.54526067e+00
 5.31487036e+00  2.12548113e+00  2.66981244e+00
 5.32059336e+00  2.11770439e+00  3.54604626e+00
 6.37496996e+00  2.13391638e+00  2.66422367e+00
 6.37802839e+00  2.12198758e+00  3.54501796e+00
 1.03644538e+00  3.19074583e+00  2.78896332e+00
 0.00000000e+00  3.18743396e+00  2.78505468e+00
 1.07032132e+00  3.18806815e+00  3.68523002e+00
 0.00000000e+00  3.18687296e+00  3.69471550e+00
 2.09582973e+00  3.16759682e+00  2.75746012e+00
 2.17085409e+00  3.19276667e+00  3.61082172e+00
 3.07479095e+00  3.14193559e+00  2.44178534e+00
 3.24055219e+00  3.17192221e+00  3.48741460e+00
 1.03702807e+00  4.23642683e+00  2.82245946e+00
 0.00000000e+00  4.24516106e+00  2.81451988e+00
 1.05704379e+00  4.25964689e+00  3.75067306e+00
 0.00000000e+00  4.26793623e+00  3.72765708e+00
 0.00000000e+00  5.28722286e+00  2.80332661e+00
 1.05061066e+00  5.34035110e+00  3.72837043e+00
 0.00000000e+00  5.31908083e+00  3.71400595e+00
 2.08618069e+00  4.23698330e+00  2.85812640e+00
 2.12697959e+00  4.27363777e+00  3.72607470e+00
 2.12169242e+00  5.31740856e+00  3.73394775e+00
 0.00000000e+00  6.34268665e+00  2.75821471e+00
 1.07118750e+00  6.39929819e+00  3.65506911e+00
 0.00000000e+00  6.41689253e+00  3.67472625e+00
 2.12122107e+00  6.42262220e+00  3.65852165e+00
 3.16009378e+00  5.29447174e+00  3.60280848e+00
 3.25280714e+00  6.33438921e+00  3.60560846e+00
 0.00000000e+00  0.00000000e+00  4.51795149e+00
 1.08914483e+00  0.00000000e+00  4.51517010e+00
 1.09303916e+00  1.06106150e+00  4.51834297e+00
 0.00000000e+00  1.05682349e+00  4.52157164e+00
 2.16311836e+00  0.00000000e+00  4.51029825e+00
 2.17402458e+00  1.07069111e+00  4.50889254e+00
 3.22625875e+00  0.00000000e+00  4.50145531e+00
 3.23297215e+00  1.07294381e+00  4.50085545e+00
 4.28438044e+00  0.00000000e+00  4.49263811e+00
 4.27717018e+00  1.06599581e+00  4.49224854e+00
 5.33126211e+00  0.00000000e+00  4.48836470e+00
 5.32417536e+00  1.05982327e+00  4.48386288e+00
 6.36925793e+00  0.00000000e+00  4.48537254e+00
 6.37095928e+00  1.06526506e+00  4.48682117e+00
 1.10601664e+00  2.12905478e+00  4.52548981e+00
 0.00000000e+00  2.11809993e+00  4.53318501e+00
 2.19374132e+00  2.14224005e+00  4.50817537e+00
 3.25103164e+00  2.14381957e+00  4.48059988e+00
 4.28447485e+00  2.12934923e+00  4.45752144e+00
 5.30885220e+00  2.11121368e+00  4.44461727e+00
 6.33936691e+00  2.11901402e+00  4.44468069e+00
 1.10780990e+00  3.17952728e+00  4.56436348e+00
 0.00000000e+00  3.19928598e+00  4.57994366e+00
 2.21649885e+00  3.18684721e+00  4.50125217e+00
 3.29032207e+00  3.17940235e+00  4.42449141e+00
 4.27422619e+00  3.07748032e+00  3.35327530e+00
 4.30820370e+00  3.16124177e+00  4.40106106e+00
 1.11381912e+00  4.25445461e+00  4.64392328e+00
 0.00000000e+00  4.24051380e+00  4.60085773e+00
 2.22826290e+00  4.23454571e+00  4.54353094e+00
 1.09389997e+00  5.37391663e+00  4.57284880e+00
 0.00000000e+00  5.38280678e+00  4.57342291e+00
 1.11414731e+00  6.48748541e+00  4.53792524e+00
 0.00000000e+00  6.48106766e+00  4.55243206e+00
 2.17355084e+00  5.34488821e+00  4.58044195e+00
 2.26185107e+00  6.42554331e+00  4.54884720e+00
 3.26646662e+00  5.25052929e+00  4.45478249e+00
 3.37582970e+00  6.28187418e+00  4.48637819e+00
 4.06340170e+00  5.22240448e+00  3.27492857e+00
 4.22689295e+00  6.21321058e+00  3.36769319e+00
 4.34380770e+00  5.16119957e+00  4.39978123e+00
 4.36307764e+00  6.16249037e+00  4.40011692e+00
 5.34411287e+00  5.14345884e+00  3.39993834e+00
 6.34393597e+00  5.12550354e+00  3.39991522e+00
 6.36189890e+00  6.12534666e+00  3.39995837e+00
 5.36202192e+00  6.14333773e+00  3.40003300e+00
 5.34408188e+00  5.14343786e+00  4.39993858e+00
 6.34399796e+00  5.12546349e+00  4.39993572e+00
 6.36190176e+00  6.12531805e+00  4.39995289e+00
 5.36215734e+00  6.14318037e+00  4.40002537e+00
 0.00000000e+00  0.00000000e+00  5.39996719e+00
 1.09450769e+00  0.00000000e+00  5.39996719e+00
 1.10187209e+00  1.06534970e+00  5.39996719e+00
 0.00000000e+00  1.05878639e+00  5.39996719e+00
 2.17529678e+00  0.00000000e+00  5.39996719e+00
 2.18258429e+00  1.07589900e+00  5.39996719e+00
 3.23410797e+00  0.00000000e+00  5.39996719e+00
 3.24603915e+00  1.08118200e+00  5.39996719e+00
 4.28722668e+00  0.00000000e+00  5.39996719e+00
 4.28773689e+00  1.08044255e+00  5.39996719e+00
 5.33056068e+00  0.00000000e+00  5.39996719e+00
 5.32594156e+00  1.07516539e+00  5.39996719e+00
 6.37589455e+00  0.00000000e+00  5.39996719e+00
 6.35096836e+00  1.08498418e+00  5.39996719e+00
 1.12273383e+00  2.11849213e+00  5.39996719e+00
 0.00000000e+00  2.11271644e+00  5.39996719e+00
 2.21721077e+00  2.14341283e+00  5.39996719e+00
 3.26624060e+00  2.15591264e+00  5.39996719e+00
 4.29626656e+00  2.14504004e+00  5.39996719e+00
 5.30576992e+00  2.12917471e+00  5.39996719e+00
 6.32645607e+00  2.13013744e+00  5.39996719e+00
 1.13089609e+00  3.22187018e+00  5.39996719e+00
 0.00000000e+00  3.22803950e+00  5.39996719e+00
 2.25145340e+00  3.19562912e+00  5.39996719e+00
 3.30649972e+00  3.19029975e+00  5.39996719e+00
 4.30886412e+00  3.16196060e+00  5.39996719e+00
 5.30855227e+00  3.14282894e+00  4.39925289e+00
 5.30911112e+00  3.14351511e+00  5.39996719e+00
 6.31063747e+00  3.12771177e+00  4.39856243e+00
 6.31089020e+00  3.12949109e+00  5.39996719e+00
 3.32628345e+00  4.18068218e+00  4.38242817e+00
 3.33646655e+00  4.19348383e+00  5.39996719e+00
 2.32298589e+00  4.22476006e+00  5.39996719e+00
 4.32645941e+00  4.16095686e+00  4.40022612e+00
 4.32660818e+00  4.16116381e+00  5.39996719e+00
 5.32622671e+00  4.14365530e+00  4.39992142e+00
 5.32631207e+00  4.14355755e+00  5.39996719e+00
 6.32593584e+00  4.12587690e+00  4.40001822e+00
 6.32584667e+00  4.12573385e+00  5.39996719e+00
 0.00000000e+00  4.20936441e+00  5.39996719e+00
 1.14319766e+00  4.24070311e+00  5.39996719e+00
 1.12825704e+00  5.40282249e+00  5.39996719e+00
 0.00000000e+00  5.42761326e+00  5.39996719e+00
 5.34402609e+00  5.14343643e+00  5.39996719e+00
 4.34420109e+00  5.16128111e+00  5.39996719e+00
 6.34403563e+00  5.12548923e+00  5.39996719e+00
 1.13844013e+00  6.50986385e+00  5.39996719e+00
 0.00000000e+00  6.49839640e+00  5.39996719e+00
 2.21772242e+00  5.35149574e+00  5.39996719e+00
 2.31275558e+00  6.42059612e+00  5.39996719e+00
 3.28515673e+00  5.22832537e+00  5.39996719e+00
 3.39839101e+00  6.26558113e+00  5.39996719e+00
 4.36344433e+00  6.16172028e+00  5.39996719e+00
 5.36217070e+00  6.14311886e+00  5.39996719e+00
 6.36189842e+00  6.12531567e+00  5.39996719e+00
</DataArray>
</Points>
<PointData Tensors="Stress_Components,Plastic_strain_components" Vevtors="Spatial_displacement,Reaction_force" Scalars="Equivalent_plastic_strain,Stress_Mises,Stress_Max_Principal,Stress_Mid_Principal,Stress_Min_Principal,Stress_Pressure,Stress_Tresca,Stress_Third_Invariant,Plastic_strain_Max_Principal,Plastic_strain_Min_Principal">
<DataArray type="Float32" Name="Stress_Components" NumberOfComponents="9" format="ascii">
1.77831765e+01 7.98178762e-02 1.73426416e-01 7.98178762e-02 1.48952231e+01 2.92975390e-02 1.73426416e-01 2.92975390e-02 5.51989126e+00
6.01953536e+00 -2.82860669e+00 8.99202337e-01 -2.82860669e+00 5.14568609e+00 2.50186623e+00 8.99202337e-01 2.50186623e+00 -1.54406684e+01
-1.31977911e+01 -4.43890207e-01 1.44376180e+00 -4.43890207e-01 -6.53168917e+00 -2.90848164e+00 1.44376180e+00 -2.90848164e+00 -5.06852512e+01
-3.15518290e+00 -9.21031117e-01 4.41120043e-02 -9.21031117e-01 -3.86180794e+00 -8.41887631e-02 4.41120043e-02 -8.41887631e-02 -3.76660924e+01
1.63638740e+01 5.77364974e-02 8.52922534e-01 5.77364974e-02 1.69608419e+01 -3.25416442e-01 8.52922534e-01 -3.25416442e-01 5.98767257e+00
2.36106420e+01 -2.47851031e+00 3.26876912e+00 -2.47851031e+00 2.61769524e+01 7.75360550e-02 3.26876912e+00 7.75360550e-02 1.92765410e+01
-1.24429712e+01 -1.99291781e-01 7.25101709e-01 -1.99291781e-01 1.03424263e+00 -7.14215867e-02 7.25101709e-01 -7.14215867e-02 -4.03739763e+01
1.23448874e+01 -2.96090864e-01 3.67346805e-01 -2.96090864e-01 1.09597633e+01 4.29673815e-01 3.67346805e-01 4.29673815e-01 -5.21948338e+00
-2.24210238e+01 -2.05566174e+00 -1.10873818e-01 -2.05566174e+00 -2.03714688e+01 6.37016189e+00 -1.10873818e-01 6.37016189e+00 -7.86941310e+01
-9.13876648e+01 -4.37509680e+00 -6.72697639e+00 -4.37509680e+00 -8.58736076e+01 4.89819229e+00 -6.72697639e+00 4.89819229e+00 -2.21666428e+02
-7.55238390e+01 9.14312792e+00 -2.82136852e+01 9.14312792e+00 -8.01256803e+01 -1.71637456e+00 -2.82136852e+01 -1.71637456e+00 -1.76559088e+02
-5.36367040e+01 -8.40892792e-02 -5.00807071e+00 -8.40892792e-02 -7.84453096e+01 -1.08809602e+00 -5.00807071e+00 -1.08809602e+00 -1.70885149e+02
-2.26911649e-01 -5.98167628e-01 -2.75056854e-01 -5.98167628e-01 3.36980794e-01 2.70930432e-01 -2.75056854e-01 2.70930432e-01 -4.98456478e-01
-4.34883248e-01 -3.97415273e-02 -9.12078619e-02 -3.97415273e-02 -1.20962419e-01 -2.24268368e-01 -9.12078619e-02 -2.24268368e-01 1.67604424e-01
6.89149916e-01 -1.64668702e-01 -1.29523534e-01 -1.64668702e-01 -1.13899115e-01 5.72666466e-01 -1.29523534e-01 5.72666466e-01 -9.63561684e-01
3.67167056e-01 -7.23307729e-01 4.33373451e-02 -7.23307729e-01 -1.85877167e-01 -5.16129941e-01 4.33373451e-02 -5.16129941e-01 -5.69715694e-01
2.34848633e-01 2.02780277e-01 3.80642891e-01 2.02780277e-01 5.79338558e-02 1.60138205e-01 3.80642891e-01 1.60138205e-01 -2.57740654e-02
-5.55894785e-02 2.56279930e-02 1.15510039e-01 2.56279930e-02 -1.53206378e-01 8.30365624e-03 1.15510039e-01 8.30365624e-03 4.75924611e-01
-5.56033365e-02 6.52311966e-02 -2.43386552e-01 6.52311966e-02 2.01094747e-01 -5.40409863e-01 -2.43386552e-01 -5.40409863e-01 1.21583894e-01
-3.10170501e-01 2.42401421e-01 -1.43745393e-01 2.42401421e-01 -1.32836640e-01 3.46861482e-01 -1.43745393e-01 3.46861482e-01 7.09883988e-01
1.48492765e+00 4.04681545e-02 1.40177980e-01 4.04681545e-02 2.26056147e+00 -1.61022879e-04 1.40177980e-01 -1.61022879e-04 -2.59707003e+01
2.23795997e+00 4.68315311e-01 1.53448363e-02 4.68315311e-01 2.21715286e+00 2.68276237e-01 1.53448363e-02 2.68276237e-01 -2.51471974e+01
6.70768547e+00 -1.80068999e-01 1.09482687e-02 -1.80068999e-01 7.29622556e+00 4.50340861e-01 1.09482687e-02 4.50340861e-01 -1.48174915e+01
2.03128368e+00 1.83476081e-01 1.20508783e-01 1.83476081e-01 3.43195093e+00 -1.92809705e-01 1.20508783e-01 -1.92809705e-01 -2.40687460e+01
6.85071945e+00 -3.01879514e-02 5.39273679e-01 -3.01879514e-02 5.89424133e+00 2.08964631e-01 5.39273679e-01 2.08964631e-01 -1.62077932e+01
3.26866806e-01 2.28882212e-01 -2.32710654e-01 2.28882212e-01 -4.15341854e-02 1.09670198e+00 -2.32710654e-01 1.09670198e+00 -2.96049268e+01
4.61057353e+00 3.57379321e-01 2.18191167e-01 3.57379321e-01 4.13387030e+00 3.95201139e-01 2.18191167e-01 3.95201139e-01 -2.05337135e+01
1.32169335e+00 3.38095384e-01 5.66038642e-01 3.38095384e-01 -5.14961481e-02 -6.18819665e-01 5.66038642e-01 -6.18819665e-01 -2.85683661e+01
7.27760029e+00 -7.92413183e-01 1.62691824e-01 -7.92413183e-01 6.58175278e+00 -6.95697069e-02 1.62691824e-01 -6.95697069e-02 -1.49896445e+01
6.02283084e+00 -4.81508993e-01 8.28362186e-01 -4.81508993e-01 6.02774306e+00 8.89390499e-01 8.28362186e-01 8.89390499e-01 -1.67479757e+01
9.40744877e-02 9.75209307e-02 -1.15040117e-02 9.75209307e-02 2.37440288e-01 3.17661099e-01 -1.15040117e-02 3.17661099e-01 -2.96961552e+01
-1.41826385e+00 5.99541557e-02 1.03817834e+00 5.99541557e-02 1.16509944e-01 1.80439760e+00 1.03817834e+00 1.80439760e+00 -3.11272694e+01
6.46006349e+00 1.25837350e-01 2.89115950e-01 1.25837350e-01 5.53968149e+00 6.43951416e-01 2.89115950e-01 6.43951416e-01 -1.69293113e+01
1.14281068e+01 -3.83410160e-02 5.32507738e-02 -3.83410160e-02 1.00380587e+01 -6.74682199e-02 5.32507738e-02 -6.74682199e-02 -6.78594793e+00
3.44487819e+00 -7.64700055e-01 3.25289398e-01 -7.64700055e-01 2.48110084e+00 8.55891602e-01 3.25289398e-01 8.55891602e-01 -2.35074861e+01
3.61790258e+00 -6.26087481e-01 5.41851798e-01 -6.26087481e-01 3.65617281e+00 7.53767109e-01 5.41851798e-01 7.53767109e-01 -2.19963936e+01
9.04875723e+00 8.29994539e-02 -1.90054077e-01 8.29994539e-02 7.16615143e+00 5.01711491e-01 -1.90054077e-01 5.01711491e-01 -1.23398595e+01
6.07249463e+00 -6.65774755e-03 -4.67814821e-01 -6.65774755e-03 4.00832689e+00 1.37165123e-01 -4.67814821e-01 1.37165123e-01 -1.90055295e+01
7.33592772e+00 -2.99352877e-01 -1.19306535e-01 -2.99352877e-01 5.71581483e+00 5.86679138e-01 -1.19306535e-01 5.86679138e-01 -1.58388549e+01
1.53277973e+01 -3.69381455e-01 3.36150326e-01 -3.69381455e-01 1.41811228e+01 -2.12578968e-01 3.36150326e-01 -2.12578968e-01 1.86585069e+00
1.23318330e+01 -1.97926387e-01 -4.86486177e-02 -1.97926387e-01 1.08130749e+01 4.83523589e-02 -4.86486177e-02 4.83523589e-02 -4.88688800e+00
1.02001240e+01 6.54866460e-02 -3.08062784e-01 6.54866460e-02 7.64396155e+00 1.08228506e-01 -3.08062784e-01 1.08228506e-01 -1.06022637e+01
1.71063522e+01 -1.58924389e-01 -1.35731963e-01 -1.58924389e-01 1.72654375e+01 -2.80352052e-01 -1.35731963e-01 -2.80352052e-01 7.15262985e+00
8.51000714e+00 -2.28354041e-01 -1.13419019e-01 -2.28354041e-01 7.22069082e+00 -2.89512290e-01 -1.13419019e-01 -2.89512290e-01 -1.29509167e+01
1.25017903e+01 -8.79356721e-02 -1.38986081e-01 -8.79356721e-02 1.18507762e+01 -2.46482402e-01 -1.38986081e-01 -2.46482402e-01 -3.53634834e+00
1.77587082e+01 3.64159187e-01 -4.27045548e-01 3.64159187e-01 1.57810616e+01 8.27137399e-02 -4.27045548e-01 8.27137399e-02 6.24376917e+00
1.86695896e+01 4.44244429e-01 2.91374866e-02 4.44244429e-01 1.95147827e+01 -6.75230235e-01 2.91374866e-02 -6.75230235e-01 1.13689117e+01
1.18253313e+01 5.44552222e-01 3.96770667e-01 5.44552222e-01 1.06887928e+01 -9.11898567e-01 3.96770667e-01 -9.11898567e-01 -5.47397780e+00
2.40089369e+00 -7.40707600e-01 1.32196030e+00 -7.40707600e-01 4.65318865e+00 1.10758245e-02 1.32196030e+00 1.10758245e-02 -2.18774719e+01
3.81184888e+00 -1.05782198e+00 8.43167312e-01 -1.05782198e+00 7.05724138e+00 -2.50106726e-01 8.43167312e-01 -2.50106726e-01 -1.79228537e+01
-5.05983984e+00 4.60760892e-01 2.20874881e+00 4.60760892e-01 -6.19618481e+00 2.08132370e+00 2.20874881e+00 2.08132370e+00 -4.16721289e+01
7.23196268e-01 -1.08367418e-01 3.28846700e-01 -1.08367418e-01 1.05343294e+00 -4.62213065e-02 3.28846700e-01 -4.62213065e-02 -2.81377904e+01
1.78507351e+01 3.03389012e+00 4.35682692e+00 3.03389012e+00 1.63382925e+01 3.62718207e+00 4.35682692e+00 3.62718207e+00 -9.35459137e-02
-7.04466087e+00 8.86778528e-01 -1.84294097e-01 8.86778528e-01 -6.76153019e+00 3.24980829e-01 -1.84294097e-01 3.24980829e-01 -4.34642425e+01
-8.37446190e+01 -7.31970082e+00 -1.84291464e+01 -7.31970082e+00 -8.47590782e+01 -2.14571848e+00 -1.84291464e+01 -2.14571848e+00 -1.90951689e+02
1.36735670e+01 1.44992990e+00 6.80766804e-01 1.44992990e+00 1.79324262e+01 1.26241781e+00 6.80766804e-01 1.26241781e+00 -7.32962881e-01
-5.34368401e+01 -1.38755225e+00 -3.99694809e+00 -1.38755225e+00 -4.86640482e+01 1.06113715e+00 -3.99694809e+00 1.06113715e+00 -1.39974981e+02
-3.81633900e+01 -2.03464154e+00 -1.79503999e+01 -2.03464154e+00 -4.87683292e+01 -1.43350393e+00 -1.79503999e+01 -1.43350393e+00 -1.01016363e+02
-3.56702657e+01 -1.76207462e+00 -1.60974443e-01 -1.76207462e+00 -3.10448842e+01 1.59843104e+00 -1.60974443e-01 1.59843104e+00 -1.01911152e+02
-4.81642380e+01 -4.66605156e-01 -4.24943632e+00 -4.66605156e-01 -4.24237089e+01 -1.74409227e+00 -4.24943632e+00 -1.74409227e+00 -1.27461121e+02
-3.08388176e+01 -2.88485599e+00 -7.69082129e-01 -2.88485599e+00 -2.15601168e+01 3.59235674e-01 -7.69082129e-01 3.59235674e-01 -8.57671204e+01
-4.83922195e+01 -4.61419046e+00 -4.86804700e+00 -4.61419046e+00 -3.66088753e+01 -3.76982747e+00 -4.86804700e+00 -3.76982747e+00 -1.19445663e+02
3.63766507e+00 1.36407807e-01 2.63993201e+00 1.36407807e-01 6.15920336e+00 5.74318883e-01 2.63993201e+00 5.74318883e-01 -1.87125134e+01
1.29365118e+01 5.07928547e-02 1.09044762e+00 5.07928547e-02 1.38983612e+01 -2.26851866e-01 1.09044762e+00 -2.26851866e-01 -8.31918955e-01
-1.06040467e+01 -4.06169543e-01 3.74175137e+00 -4.06169543e-01 -1.09196980e+01 1.69687793e+00 3.74175137e+00 1.69687793e+00 -5.22740263e+01
3.79606986e+00 4.24100664e-02 1.53888360e+00 4.24100664e-02 5.31156692e+00 1.04988812e-01 1.53888360e+00 1.04988812e-01 -2.01024756e+01
-1.13561358e+02 -1.24759587e+01 8.95011717e+00 -1.24759587e+01 -1.03752931e+02 -1.58913062e+01 8.95011717e+00 -1.58913062e+01 -2.37076706e+02
-2.09967064e+01 2.58521247e+00 2.61735674e+00 2.58521247e+00 -2.85454767e+01 -2.86023102e+00 2.61735674e+00 -2.86023102e+00 -8.45083586e+01
1.33151474e+02 1.51384258e+01 2.39228458e+01 1.51384258e+01 1.28822220e+02 2.34625950e+01 2.39228458e+01 2.34625950e+01 2.02941452e+02
8.37457371e+00 -5.59003986e+00 -8.16140040e+00 -5.59003986e+00 6.16528161e+00 -5.20490567e+00 -8.16140040e+00 -5.20490567e+00 -1.25928243e-01
2.48379989e+01 -6.28842158e-02 -2.45680664e+00 -6.28842158e-02 2.48728717e+01 2.06647720e-01 -2.45680664e+00 2.06647720e-01 2.29798202e+01
1.40934813e+01 -3.81349601e-01 1.19216088e+00 -3.81349601e-01 1.42908404e+01 6.62067171e-01 1.19216088e+00 6.62067171e-01 1.05884719e+00
2.15909475e+01 -5.90098205e-01 -2.79181207e-01 -5.90098205e-01 2.34789982e+01 1.02423105e+00 -2.79181207e-01 1.02423105e+00 1.95232309e+01
6.68585825e+00 -9.36974329e-01 2.47234527e+00 -9.36974329e-01 7.29493666e+00 1.81276746e+00 2.47234527e+00 1.81276746e+00 -1.41720743e+01
1.47820000e+01 -6.41416758e-02 7.22328844e-02 -6.41416758e-02 1.46626671e+01 2.54315764e-01 7.22328844e-02 2.54315764e-01 1.88867486e+00
2.18237869e+01 3.31272391e-01 1.08151732e+00 3.31272391e-01 2.25893735e+01 5.97038524e-02 1.08151732e+00 5.97038524e-02 1.81837466e+01
1.62498164e+00 1.94824935e+00 1.33673407e-01 1.94824935e+00 4.27115011e+00 1.18112195e+00 1.33673407e-01 1.18112195e+00 -2.33690562e+01
-6.16426215e+01 2.09888518e+00 6.04910848e+00 2.09888518e+00 -5.77295063e+01 1.99219856e+01 6.04910848e+00 1.99219856e+01 -1.37376518e+02
-1.07048470e+02 -3.84255809e+00 1.27580686e+01 -3.84255809e+00 -1.04139900e+02 1.22618728e+01 1.27580686e+01 1.22618728e+01 -2.54847954e+02
-5.95650973e+00 -3.04549407e+00 -3.07043257e+00 -3.04549407e+00 1.60602045e-01 5.14311657e+00 -3.07043257e+00 5.14311657e+00 -3.46691620e+01
4.44871998e+00 -4.32545215e-01 -3.06301832e-01 -4.32545215e-01 6.45722961e+00 7.61600181e-01 -3.06301832e-01 7.61600181e-01 -1.82102661e+01
8.04775715e-01 1.26276169e+00 -1.37795344e+00 1.26276169e+00 -1.04366493e+00 8.45594473e-01 -1.37795344e+00 8.45594473e-01 -3.02125883e+01
2.67192268e+00 -1.82584891e+00 2.24812746e+00 -1.82584891e+00 6.42978573e+00 -1.37351006e+00 2.24812746e+00 -1.37351006e+00 -1.98944969e+01
-2.31129198e+01 -3.59198349e+00 -4.41996640e+00 -3.59198349e+00 -1.80125704e+01 3.84684873e+00 -4.41996640e+00 3.84684873e+00 -7.02143021e+01
-8.99172262e+01 1.23509751e+01 7.31461207e-01 1.23509751e+01 -5.26132800e+01 -3.92318037e+01 7.31461207e-01 -3.92318037e+01 -1.26354312e+02
-1.60910419e+00 -4.16465902e+00 -6.94216371e-01 -4.16465902e+00 -7.33237807e+00 -3.27025787e+00 -6.94216371e-01 -3.27025787e+00 -3.57043266e+01
5.30239007e+00 -3.89544582e-02 1.94648787e-01 -3.89544582e-02 2.94574398e+00 -2.02843919e-04 1.94648787e-01 -2.02843919e-04 -2.09717960e+01
1.35573030e-01 1.24336150e-01 -8.30363622e-02 1.24336150e-01 -1.07270515e+00 7.27920622e-01 -8.30363622e-02 7.27920622e-01 -3.09390689e+01
8.74938291e-01 6.74294266e-01 2.23650297e-01 6.74294266e-01 -7.88711458e-01 3.71370766e-01 2.23650297e-01 3.71370766e-01 -2.98235748e+01
-5.45101494e-01 2.97501929e-01 3.82377867e-01 2.97501929e-01 -3.65477729e+00 -2.94997927e-01 3.82377867e-01 -2.94997927e-01 -3.43843462e+01
-5.73726791e+00 8.13031480e-01 -1.73196286e-01 8.13031480e-01 -3.99953836e+00 7.71205179e-01 -1.73196286e-01 7.71205179e-01 -4.04370441e+01
-6.57130727e+00 1.23919186e+00 4.79290514e-01 1.23919186e+00 -4.87500733e+00 1.52191052e+00 4.79290514e-01 1.52191052e+00 -4.20698758e+01
-6.80502540e+00 2.91223720e-01 5.81510939e-01 2.91223720e-01 -5.10372901e+00 3.93384621e-01 5.81510939e-01 3.93384621e-01 -4.28963714e+01
-1.39290600e+01 5.30913447e-01 7.98967145e-01 5.30913447e-01 -7.65645401e+00 1.81688521e+00 7.98967145e-01 1.81688521e+00 -5.26089598e+01
-4.47674620e+00 -1.28781977e+00 3.69970050e-01 -1.28781977e+00 -2.51982355e+00 5.85212745e-01 3.69970050e-01 5.85212745e-01 -3.74475481e+01
-2.11155160e+00 -7.02978440e-01 -9.91142038e-02 -7.02978440e-01 1.53330490e+00 -9.37853925e-02 -9.91142038e-02 -9.37853925e-02 -3.03778179e+01
5.25483830e+00 -5.24421513e-01 7.55554298e-03 -5.24421513e-01 7.50016220e+00 -5.93327872e-01 7.55554298e-03 -5.93327872e-01 -1.60748837e+01
9.80182809e+00 -1.02509361e+00 -1.63676773e-01 -1.02509361e+00 1.06846069e+01 -3.87934316e-03 -1.63676773e-01 -3.87934316e-03 -7.80896270e+00
6.63959026e-01 3.98740262e-01 8.64468992e-01 3.98740262e-01 5.26560044e+00 -1.33930776e+00 8.64468992e-01 -1.33930776e+00 -2.30694685e+01
-3.88282593e+00 -1.12472434e+00 1.98457360e-01 -1.12472434e+00 -1.12268746e-01 -2.08332467e+00 1.98457360e-01 -2.08332467e+00 -3.36089783e+01
-6.56791753e+00 1.33233851e+00 8.39452978e-01 1.33233851e+00 -1.02181821e+01 1.76120809e+00 8.39452978e-01 1.76120809e+00 -4.77505603e+01
-2.57867050e+00 7.64226869e-01 1.65402854e-01 7.64226869e-01 -6.16748953e+00 -9.08943159e-02 1.65402854e-01 -9.08943159e-02 -3.92827072e+01
-9.02020276e+00 2.86863369e+00 3.22434872e-01 2.86863369e+00 -9.18261826e+00 1.04243028e+00 3.22434872e-01 1.04243028e+00 -4.92310832e+01
6.31755567e+00 1.73428614e+00 -5.63483104e+00 1.73428614e+00 8.33788061e+00 -6.30089588e-01 -5.63483104e+00 -6.30089588e-01 -1.10030995e+01
1.29091930e+01 -2.54003949e-01 -2.43866970e+00 -2.54003949e-01 1.87101532e+01 -7.97948007e-02 -2.43866970e+00 -7.97948007e-02 2.93163126e+00
-1.17441721e+01 -2.89228686e+00 -7.61741844e+00 -2.89228686e+00 -4.61494001e+00 -1.90620359e+00 -7.61741844e+00 -1.90620359e+00 -4.39970086e+01
-6.99038760e+00 -6.19396822e+00 -9.38177244e+00 -6.19396822e+00 -1.02722311e+01 -2.28743800e+00 -9.38177244e+00 -2.28743800e+00 -4.29465307e+01
-2.49582213e+01 2.65588651e-01 4.43421827e+00 2.65588651e-01 -3.37837553e+01 4.94122008e-02 4.43421827e+00 4.94122008e-02 -9.21226055e+01
-2.86892471e+01 -1.39488967e+00 3.81071623e+00 -1.39488967e+00 -3.28039722e+01 -1.58615227e-01 3.81071623e+00 -1.58615227e-01 -9.60981175e+01
1.40227311e+01 2.38698745e+00 -6.66931530e-01 2.38698745e+00 9.79970757e+00 -4.37749386e+00 -6.66931530e-01 -4.37749386e+00 -2.83941869e+00
3.74448325e+01 1.58567236e+00 -2.12240378e+00 1.58567236e+00 3.25326417e+01 2.42195924e-02 -2.12240378e+00 2.42195924e-02 4.37147992e+01
8.16757507e+01 4.26856709e+00 2.65899715e+01 4.26856709e+00 9.97334671e+01 7.06230068e+00 2.65899715e+01 7.06230068e+00 1.28689819e+02
2.16505440e+01 -2.57440678e+00 -5.20800495e-01 -2.57440678e+00 1.52778319e+01 -3.09186881e+00 -5.20800495e-01 -3.09186881e+00 1.77434201e+01
-2.60983422e+01 -4.13278282e-01 5.65375686e-02 -4.13278282e-01 -2.33449718e+01 5.86915371e+00 5.65375686e-02 5.86915371e+00 -8.10541706e+01
2.85757192e+00 9.21466251e-02 -1.73260562e+00 9.21466251e-02 1.04653168e+00 2.90073294e+00 -1.73260562e+00 2.90073294e+00 -2.56401316e+01
-1.09061405e+02 -1.23225737e+01 1.19739571e+01 -1.23225737e+01 -1.60594891e+02 -1.33797252e+01 1.19739571e+01 -1.33797252e+01 -3.08040100e+02
-3.46279000e+01 3.20181722e-01 -1.87300476e+00 3.20181722e-01 -2.97129658e+01 4.88972704e+00 -1.87300476e+00 4.88972704e+00 -9.86129195e+01
-1.34996266e+01 -6.13426838e-01 4.01195602e+00 -6.13426838e-01 -1.05002532e+01 -2.81886545e-01 4.01195602e+00 -2.81886545e-01 -5.57215052e+01
2.17597886e+01 -2.57072657e-01 2.21625310e+00 -2.57072657e-01 2.03002259e+01 1.02891989e-01 2.21625310e+00 1.02891989e-01 1.53672407e+01
1.07323191e+01 4.95680332e-01 3.96261543e-01 4.95680332e-01 9.64776087e+00 -7.10358464e-01 3.96261543e-01 -7.10358464e-01 -7.83843899e+00
-3.30125782e+01 7.78335929e-01 -5.26246175e-01 7.78335929e-01 -4.15956104e+01 -3.70966542e+00 -5.26246175e-01 -3.70966542e+00 -1.08652073e+02
-1.16241074e+01 -1.43620649e+00 -3.28815410e+00 -1.43620649e+00 -2.14303629e+01 6.75887409e+00 -3.28815410e+00 6.75887409e+00 -6.10913565e+01
8.69470954e+00 -1.49805885e+00 -6.33647032e-01 -1.49805885e+00 -1.00235898e+01 6.24611276e+00 -6.33647032e-01 6.24611276e+00 -4.20828522e+01
1.29729934e+01 -1.86877367e+00 2.16111882e+00 -1.86877367e+00 2.13697774e+01 -3.99223594e+00 2.16111882e+00 -3.99223594e+00 9.04694921e+00
9.31156235e+01 -4.38838863e+00 6.71045959e-01 -4.38838863e+00 6.54889603e+01 2.21779461e+01 6.71045959e-01 2.21779461e+01 8.97886887e+01
4.16089249e+01 2.88892722e+00 -4.04037833e-01 2.88892722e+00 3.75498466e+01 5.77503967e+00 -4.04037833e-01 5.77503967e+00 5.51463890e+01
8.94631314e+00 -2.40816943e+00 -2.24547929e+00 -2.40816943e+00 1.01159175e+01 1.16883129e+00 -2.24547929e+00 1.16883129e+00 1.11722940e+01
4.80136389e+00 -4.67443452e+00 -1.84876781e+00 -4.67443452e+00 1.46022547e+01 -3.51460072e+00 -1.84876781e+00 -3.51460072e+00 7.64705992e+00
-1.17334950e+00 -9.47289705e-01 1.53748107e+00 -9.47289705e-01 1.18086302e+00 -1.09884346e+00 1.53748107e+00 -1.09884346e+00 -4.84391391e-01
-9.39638674e-01 1.70994356e-01 9.69077498e-02 1.70994356e-01 -1.10088624e-01 8.12579751e-01 9.69077498e-02 8.12579751e-01 5.72594583e-01
9.35313225e-01 -5.91107965e-01 3.60301822e-01 -5.91107965e-01 -4.72372204e-01 -1.46808219e+00 3.60301822e-01 -1.46808219e+00 -9.40213501e-01
4.22172844e-01 -1.71002865e+00 -1.28202116e+00 -1.71002865e+00 5.39302886e-01 1.32224464e+00 -1.28202116e+00 1.32224464e+00 -1.43872905e+00
7.10189321e+00 2.54315503e+00 1.59926538e+00 2.54315503e+00 -3.01477251e+00 9.85269356e-01 1.59926538e+00 9.85269356e-01 -7.15836017e-01
1.14219810e+00 -4.34345047e-01 -2.53529459e-01 -4.34345047e-01 -5.10470188e+00 8.87959639e-01 -2.53529459e-01 8.87959639e-01 -8.86551775e-01
-3.64591622e+00 9.11532253e-01 6.87268823e-02 9.11532253e-01 9.26440790e-01 -1.52718121e+00 6.87268823e-02 -1.52718121e+00 5.02934486e-01
-5.19118655e+00 -2.32571920e+00 -3.71843566e-01 -2.32571920e+00 2.45595181e+00 -5.83787163e-01 -3.71843566e-01 -5.83787163e-01 3.40530285e+00
2.17456985e+00 -3.57422084e-02 4.37362352e-03 -3.57422084e-02 -8.30735862e-01 3.62308882e-03 4.37362352e-03 3.62308882e-03 -2.83897743e+01
-6.96996450e-01 2.43450612e-01 -1.41097642e-02 2.43450612e-01 -2.28351581e+00 2.70516373e-01 -1.41097642e-02 2.70516373e-01 -3.31794691e+01
1.63399506e+00 8.76232669e-01 2.06851687e-01 8.76232669e-01 -3.22445393e-01 3.32352221e-01 2.06851687e-01 3.32352221e-01 -2.84657687e+01
8.14090252e-01 3.72358866e-01 1.27499208e-01 3.72358866e-01 -2.68177605e+00 -7.13610556e-03 1.27499208e-01 -7.13610556e-03 -3.18261986e+01
-8.83995378e+00 5.92677087e-01 -8.38383753e-03 5.92677087e-01 -6.57097328e+00 1.03635111e+00 -8.38383753e-03 1.03635111e+00 -4.65241375e+01
-6.56314795e+00 1.94657385e+00 2.50981878e-01 1.94657385e+00 -5.40493669e+00 6.39350580e-01 2.50981878e-01 6.39350580e-01 -4.27029412e+01
-1.16859564e+01 1.28277314e+00 2.90933729e-02 1.28277314e+00 -7.64245129e+00 5.45932174e-01 2.90933729e-02 5.45932174e-01 -5.06835098e+01
-2.35237845e+01 1.68539867e+00 1.19194143e+00 1.68539867e+00 -1.42681127e+01 1.97316125e+00 1.19194143e+00 1.97316125e+00 -6.96946239e+01