<VTKFile type="UnstructuredGrid" version="0.1" byte_order="LittleEndian">
<UnstructuredGrid>
<Piece NumberOfPoints="173" NumberOfCells="80">
<Points>
<DataArray type="Float64" NumberOfComponents="3" format="ascii">
 0.00000000e+00  0.00000000e+00  0.00000000e+00
 1.04520380e+00  0.00000000e+00  0.00000000e+00
 1.04823411e+00  1.08105254e+00  0.00000000e+00
 0.00000000e+00  1.07815039e+00  0.00000000e+00
 0.00000000e+00  0.00000000e+00  9.04247344e-01
 1.04437840e+00  0.00000000e+00  9.00605738e-01
 1.04535162e+00  1.07562137e+00  9.05208826e-01
 0.00000000e+00  1.07451260e+00  9.07009482e-01
 2.09474516e+00  0.00000000e+00  0.00000000e+00
 2.09597325e+00  1.08697581e+00  0.00000000e+00
 2.09235120e+00  0.00000000e+00  8.94155622e-01
 2.09474516e+00  1.07898462e+00  8.99435461e-01
 3.14542651e+00  0.00000000e+00  0.00000000e+00
 3.15019870e+00  1.09538352e+00  0.00000000e+00
 3.15117478e+00  0.00000000e+00  8.88375401e-01
 3.14541149e+00  1.08191371e+00  8.88922751e-01
 4.21271801e+00  0.00000000e+00  0.00000000e+00
 4.20002842e+00  1.10150194e+00  0.00000000e+00
 4.21680689e+00  0.00000000e+00  8.79896402e-01
 4.20257616e+00  1.08230984e+00  8.83009791e-01
 5.27776337e+00  0.00000000e+00  0.00000000e+00
 5.26271439e+00  1.10862839e+00  0.00000000e+00
 5.28388977e+00  0.00000000e+00  8.71602058e-01
 5.27261972e+00  1.08531880e+00  8.77012312e-01
 6.35069656e+00  0.00000000e+00  0.00000000e+00
 6.30865049e+00  1.13479519e+00  0.00000000e+00
 6.34723377e+00  0.00000000e+00  8.70385289e-01
 6.33687878e+00  1.10996330e+00  8.65037262e-01
 1.05245304e+00  2.14512706e+00  0.00000000e+00
 0.00000000e+00  2.14278030e+00  0.00000000e+00
 1.04829800e+00  2.14044738e+00  9.16752934e-01
 0.00000000e+00  2.13679862e+00  9.17586803e-01
 2.10428882e+00  2.15741587e+00  0.00000000e+00
 2.09572482e+00  2.14746332e+00  9.15457129e-01
 3.14652705e+00  2.16811705e+00  0.00000000e+00
 3.13984394e+00  2.15568733e+00  9.23969328e-01
 4.18177843e+00  2.18974495e+00  0.00000000e+00
 4.18467188e+00  2.15473890e+00  9.20990169e-01
 5.20509529e+00  2.19062591e+00  0.00000000e+00
 5.22143126e+00  2.15980363e+00  9.25686181e-01
 6.23865271e+00  2.22852063e+00  0.00000000e+00
 6.26579857e+00  2.19493914e+00  9.25974607e-01
 1.05598259e+00  3.18506384e+00  0.00000000e+00
 0.00000000e+00  3.18175173e+00  0.00000000e+00
 1.05036247e+00  3.18625450e+00  9.31533456e-01
 0.00000000e+00  3.18431449e+00  9.32823777e-01
 2.11253977e+00  3.18761230e+00  0.00000000e+00
 2.10256767e+00  3.18881559e+00  9.45676863e-01
 3.14380193e+00  3.19645739e+00  0.00000000e+00
 3.13713813e+00  3.19367909e+00  9.84087944e-01
 4.15050602e+00  3.20341706e+00  0.00000000e+00
 4.14183187e+00  3.19192171e+00  1.00635064e+00
 5.16650200e+00  3.19578409e+00  0.00000000e+00
 5.16853428e+00  3.17432261e+00  1.01538002e+00
 6.16901731e+00  3.23632193e+00  0.00000000e+00
 6.17593527e+00  3.23309612e+00  1.00483859e+00
 1.05850148e+00  4.20694494e+00  0.00000000e+00
 0.00000000e+00  4.21153355e+00  0.00000000e+00
 1.05116892e+00  4.20956755e+00  9.40375924e-01
 0.00000000e+00  4.21508169e+00  9.38517392e-01
 2.11189055e+00  4.20277405e+00  0.00000000e+00
 2.10005569e+00  4.19877100e+00  9.58049178e-01
 3.13882494e+00  4.19632292e+00  0.00000000e+00
 3.13014770e+00  4.19497156e+00  9.92020905e-01
 4.13548994e+00  4.20215702e+00  0.00000000e+00
 4.13510513e+00  4.20215130e+00  9.99964714e-01
 6.13540220e+00  4.20556116e+00  0.00000000e+00
 5.13545847e+00  4.20368052e+00  0.00000000e+00
 6.13552427e+00  4.20559072e+00  9.99726474e-01
 5.13552380e+00  4.20361853e+00  1.00001752e+00
 1.05632234e+00  5.22770882e+00  0.00000000e+00
 0.00000000e+00  5.23787212e+00  0.00000000e+00
 1.05303478e+00  5.23525429e+00  9.38112676e-01
 0.00000000e+00  5.23956537e+00  9.30801272e-01
 2.10987496e+00  5.21007919e+00  0.00000000e+00
 2.09378648e+00  5.21364307e+00  9.51552629e-01
 3.13026738e+00  5.19755077e+00  0.00000000e+00
 3.12354422e+00  5.20177031e+00  9.87896442e-01
 4.13392639e+00  5.20224905e+00  0.00000000e+00
 4.13369083e+00  5.20226383e+00  1.00024390e+00
 5.13377523e+00  5.20378542e+00  0.00000000e+00
 5.13387012e+00  5.20376444e+00  1.00002861e+00
 6.13389444e+00  5.20531988e+00  0.00000000e+00
 6.13391161e+00  5.20525455e+00  1.00000799e+00
 1.06361854e+00  6.26367760e+00  0.00000000e+00
 0.00000000e+00  6.26833391e+00  0.00000000e+00
 1.05719078e+00  6.26497269e+00  9.24945116e-01
 0.00000000e+00  6.27531290e+00  9.18609440e-01
 2.11823654e+00  6.23343992e+00  0.00000000e+00
 2.09704995e+00  6.25278664e+00  9.30781245e-01
 3.13619423e+00  6.20870161e+00  0.00000000e+00
 3.12894726e+00  6.22551107e+00  9.68722105e-01
 4.13342047e+00  6.20288420e+00  0.00000000e+00
 4.13275003e+00  6.20290422e+00  1.00053704e+00
 5.13241053e+00  6.20363760e+00  0.00000000e+00
 5.13252211e+00  6.20372438e+00  9.99966562e-01
 6.13237476e+00  6.20527744e+00  0.00000000e+00
 6.13240194e+00  6.20524883e+00  9.99995112e-01
 0.00000000e+00  0.00000000e+00  1.81628287e+00
 1.04472113e+00  0.00000000e+00  1.80899131e+00
 1.04410815e+00  1.06370044e+00  1.81655931e+00
 0.00000000e+00  1.06449950e+00  1.81746650e+00
 2.09970641e+00  0.00000000e+00  1.79964137e+00
 2.08951092e+00  1.05698061e+00  1.80427217e+00
 3.15469551e+00  0.00000000e+00  1.78762102e+00
 3.15471339e+00  1.05656719e+00  1.78671479e+00
 4.22578144e+00  0.00000000e+00  1.76884377e+00
 4.22007418e+00  1.05700862e+00  1.78074217e+00
 5.29894781e+00  0.00000000e+00  1.75595772e+00
 5.29155445e+00  1.05905783e+00  1.76935792e+00
 6.35731888e+00  0.00000000e+00  1.75053608e+00
 6.36964750e+00  1.06693912e+00  1.75858235e+00
 1.03845072e+00  2.12502575e+00  1.83369160e+00
 0.00000000e+00  2.13164759e+00  1.83880520e+00
 2.08658171e+00  2.12408066e+00  1.82710266e+00
 3.13938642e+00  2.12842822e+00  1.82253945e+00
 4.20980597e+00  2.14359927e+00  1.80410242e+00
 5.28271580e+00  2.14591694e+00  1.81021261e+00
 6.34624004e+00  2.15702581e+00  1.79790652e+00
 1.03381658e+00  3.18129921e+00  1.86222637e+00
 0.00000000e+00  3.18427420e+00  1.86720681e+00
 2.07351851e+00  3.18294644e+00  1.87619829e+00
 3.06557751e+00  3.15697360e+00  2.01071358e+00
 1.03620625e+00  4.22782326e+00  1.88765156e+00
 0.00000000e+00  4.22188330e+00  1.87826788e+00
 2.07991409e+00  4.20790815e+00  1.91759801e+00
 3.10262394e+00  4.17540789e+00  1.96375740e+00
 1.04490745e+00  5.24701834e+00  1.87881100e+00
 0.00000000e+00  5.25468731e+00  1.87151682e+00
 2.07478476e+00  5.23463821e+00  1.90103340e+00
 3.12677836e+00  5.21698761e+00  1.92348576e+00
 1.03957868e+00  6.29047775e+00  1.84801090e+00
 0.00000000e+00  6.28937864e+00  1.84240615e+00
 2.07642293e+00  6.29690647e+00  1.85690975e+00
 3.13759494e+00  6.28370523e+00  1.86012959e+00
 5.13390827e+00  5.20381069e+00  2.00003386e+00
 6.13390875e+00  5.20527267e+00  2.00003195e+00
 6.13244486e+00  6.20528030e+00  1.99998271e+00
 5.13241720e+00  6.20382452e+00  1.99996555e+00
 0.00000000e+00  0.00000000e+00  2.72617841e+00
 1.05208182e+00  0.00000000e+00  2.72419167e+00
 1.05520391e+00  1.05719519e+00  2.73007822e+00
 0.00000000e+00  1.05501294e+00  2.73529172e+00
 2.11562347e+00  0.00000000e+00  2.70994949e+00
 2.10331035e+00  1.04912984e+00  2.71897364e+00
 3.17203116e+00  0.00000000e+00  2.69427729e+00
 3.17319202e+00  1.04444826e+00  2.69812632e+00
 4.23994446e+00  0.00000000e+00  2.68070602e+00
 4.24292755e+00  1.04615879e+00  2.67579985e+00
 5.31161642e+00  0.00000000e+00  2.66408825e+00
 5.31202650e+00  1.04903603e+00  2.66641665e+00
 6.37794781e+00  0.00000000e+00  2.65877557e+00
 6.37740993e+00  1.04991782e+00  2.66042137e+00
 1.03911686e+00  2.10819340e+00  2.75134706e+00
 0.00000000e+00  2.12301350e+00  2.75475979e+00
 2.10320020e+00  2.11028910e+00  2.72962260e+00
 3.16263437e+00  2.11681247e+00  2.68674588e+00
 4.23801279e+00  2.12903166e+00  2.67566037e+00
 5.30618525e+00  2.12165642e+00  2.67803216e+00
 6.36473179e+00  2.12948918e+00  2.67252970e+00
 1.03503215e+00  3.18516684e+00  2.79570556e+00
 0.00000000e+00  3.18188548e+00  2.79180622e+00
 2.09275413e+00  3.16263914e+00  2.76451159e+00
 1.03552914e+00  4.22935629e+00  2.82832193e+00
 0.00000000e+00  4.23783159e+00  2.82078981e+00
 2.08314347e+00  4.22993612e+00  2.86320996e+00
 1.03648734e+00  5.28479767e+00  2.81429625e+00
 0.00000000e+00  5.27838993e+00  2.80999041e+00
 2.08007860e+00  5.28028536e+00  2.82493711e+00
 3.09742975e+00  4.28427029e+00  3.02144647e+00
 3.12163925e+00  5.27147388e+00  2.80240536e+00
 1.03991270e+00  6.32766438e+00  2.77748394e+00
 0.00000000e+00  6.33197641e+00  2.76602697e+00
</DataArray>
</Points>
<PointData Tensors="Stress_Components,Plastic_strain_components" Vevtors="Spatial_displacement,Reaction_force" Scalars="Equivalent_plastic_strain,Stress_Mises,Stress_Max_Principal,Stress_Mid_Principal,Stress_Min_Principal,Stress_Pressure,Stress_Tresca,Stress_Third_Invariant,Plastic_strain_Max_Principal,Plastic_strain_Min_Principal">
<DataArray type="Float32" Name="Stress_Components" NumberOfComponents="9" format="ascii">
-3.13928580e+00 -1.06997686e-02 -1.21321920e-02 -1.06997686e-02 4.09468412e-01 8.07147007e-03 -1.21321920e-02 8.07147007e-03 -3.27492981e+01
-9.03516430e+00 2.15449587e-01 -5.54861967e-03 2.15449587e-01 -4.68529403e+00 -2.50969715e-01 -5.54861967e-03 -2.50969715e-01 -4.45888014e+01
-4.31262207e+00 4.10421845e-01 -3.67552795e-01 4.10421845e-01 -1.70106262e+00 -3.17316860e-01 -3.67552795e-01 -3.17316860e-01 -3.63734189e+01
-5.46236396e+00 9.22970548e-02 -3.82391453e-01 9.22970548e-02 -3.07714272e+00 1.70804216e-02 -3.82391453e-01 1.70804216e-02 -3.91456594e+01
-1.10179985e+00 -6.54974207e-03 -8.30387585e-02 -6.54974207e-03 2.14638859e+00 -2.26199061e-01 -8.30387585e-02 -2.26199061e-01 -2.86890297e+01
-6.08016169e+00 1.26263842e-01 3.43466081e-01 1.26263842e-01 -2.24124247e+00 -5.59450373e-01 3.43466081e-01 -5.59450373e-01 -3.87700448e+01
-2.87393082e+00 3.03680707e-01 -1.38543438e-01 3.03680707e-01 -2.91843846e-01 -3.24893233e-01 -1.38543438e-01 -3.24893233e-01 -3.32995583e+01
-4.59994483e+00 9.86602362e-02 -2.70411674e-01 9.86602362e-02 -2.00574756e+00 1.79573780e-01 -2.70411674e-01 1.79573780e-01 -3.70255663e+01
-1.16578125e+01 1.82566579e-01 -1.72740743e-02 1.82566579e-01 -6.61741209e+00 -4.49524760e-01 -1.72740743e-02 -4.49524760e-01 -4.94504957e+01
-1.28040676e+01 9.17067507e-01 -6.33218113e-01 9.17067507e-01 -8.56019354e+00 -4.68097422e-01 -6.33218113e-01 -4.68097422e-01 -5.28342907e+01
-7.54481494e+00 1.44701244e-01 3.99429180e-01 1.44701244e-01 -4.18386215e+00 -7.61734098e-02 3.99429180e-01 -7.61734098e-02 -4.25658469e+01
-7.22938150e+00 2.55322269e-01 -7.56745214e-01 2.55322269e-01 -3.67556247e+00 -1.13639911e+00 -7.56745214e-01 -1.13639911e+00 -4.15288260e+01
-1.46501045e+01 5.52459419e-01 -7.05222944e-02 5.52459419e-01 -9.66961408e+00 4.14452761e-01 -7.05222944e-02 4.14452761e-01 -5.60523052e+01
-2.08860252e+01 5.99942178e-01 -1.29364337e+00 5.99942178e-01 -1.46546690e+01 -1.18800311e+00 -1.29364337e+00 -1.18800311e+00 -6.80154507e+01
-6.76859772e+00 -5.05496863e-01 -6.17971227e-01 -5.05496863e-01 -4.83277315e+00 -6.67470554e-02 -6.17971227e-01 -6.67470554e-02 -4.25126547e+01
-1.25137814e+01 -4.38465368e-01 -3.70104190e-01 -4.38465368e-01 -7.84902848e+00 -9.13582645e-01 -3.70104190e-01 -9.13582645e-01 -5.16660069e+01
-1.91207703e+01 -1.42793298e+00 -1.03963651e-01 -1.42793298e+00 -1.48559699e+01 1.38888551e-01 -1.03963651e-01 1.38888551e-01 -6.65387373e+01
-3.01019629e+01 -1.33238664e+00 -2.48326674e+00 -1.33238664e+00 -1.88019052e+01 -1.75575361e-01 -2.48326674e+00 -1.75575361e-01 -8.16467936e+01
-8.39192462e+00 -1.35586165e+00 -2.97329228e-01 -1.35586165e+00 -7.20109487e+00 -1.14601959e-01 -2.97329228e-01 -1.14601959e-01 -4.68066936e+01
1.36962533e-01 -1.00457005e+00 -5.37163330e-01 -1.00457005e+00 1.47660938e+00 2.82110709e-01 -5.37163330e-01 2.82110709e-01 -2.81974790e+01
-1.95292891e+01 -4.61731527e-01 -2.15626732e-01 -4.61731527e-01 -1.31708523e+01 1.15264824e+00 -2.15626732e-01 1.15264824e+00 -6.49733620e+01
-1.24615459e+01 -3.09122460e+00 -2.11348993e+00 -3.09122460e+00 -6.80461180e+00 4.90069672e-01 -2.11348993e+00 4.90069672e-01 -4.96421990e+01
-1.49869895e+00 -5.14437582e-01 -2.51424801e-01 -5.14437582e-01 -4.07723010e-01 1.20811915e+00 -2.51424801e-01 1.20811915e+00 -3.19930134e+01
3.75160965e+00 -1.77453668e+00 -2.64038848e-01 -1.77453668e+00 4.09364980e+00 2.74027275e-01 -2.64038848e-01 2.74027275e-01 -2.13107529e+01
-4.76846657e+01 -4.68725204e+00 -2.20578581e-01 -4.68725204e+00 -3.49199295e+01 5.18200278e-01 -2.20578581e-01 5.18200278e-01 -1.17974716e+02
-6.36834087e+01 -5.19095075e+00 -3.02163768e+00 -5.19095075e+00 -3.83857441e+01 5.27357602e+00 -3.02163768e+00 5.27357602e+00 -1.35339867e+02
-2.67883542e+01 -5.69718197e-01 -1.81798500e+00 -5.69718197e-01 -1.84126419e+01 2.80953211e+00 -1.81798500e+00 2.80953211e+00 -7.79579268e+01
-2.48891857e+01 -1.77762368e+00 -1.13385101e+00 -1.77762368e+00 -1.82315505e+01 2.89089544e+00 -1.13385101e+00 2.89089544e+00 -7.53354113e+01
-1.54476857e+00 8.53047267e-01 -5.18174652e-01 8.53047267e-01 -3.57161617e+00 -4.01284011e-01 -5.18174652e-01 -4.01284011e-01 -3.53949428e+01
1.65502071e-01 1.90448288e-01 -5.06921753e-01 1.90448288e-01 -1.81913090e+00 5.74686937e-03 -5.06921753e-01 5.74686937e-03 -3.16829059e+01
-1.42127352e+00 5.21010607e-01 4.00620045e-02 5.21010607e-01 -1.66230904e+00 -7.33389508e-01 4.00620045e-02 -7.33389508e-01 -3.33004569e+01
1.71338677e+00 1.89198125e-01 8.23434766e-01 1.89198125e-01 1.22121668e+00 5.11369826e-02 8.23434766e-01 5.11369826e-02 -2.67999375e+01
-6.19164920e+00 2.56906077e+00 -8.68508434e-01 2.56906077e+00 -8.80030680e+00 -1.16556969e+00 -8.68508434e-01 -1.16556969e+00 -4.56508231e+01
-4.43249160e+00 2.00234792e+00 1.77293033e+00 2.00234792e+00 -5.29696885e+00 -3.41732778e-01 1.77293033e+00 -3.41732778e-01 -3.95346713e+01
1.98298335e+01 1.37445751e+00 -1.59422308e+00 1.37445751e+00 1.82100139e+01 -5.39487809e-01 -1.59422308e+00 -5.39487809e-01 1.00633344e+01
5.68654905e+00 1.57967269e+00 3.78389125e+00 1.57967269e+00 6.80009862e+00 -2.81067895e-01 3.78389125e+00 -2.81067895e-01 -1.70429205e+01
2.97699726e+01 -8.61582510e-01 -4.61667728e+00 -8.61582510e-01 2.42257217e+01 -1.94256078e-01 -4.61667728e+00 -1.94256078e-01 2.73948814e+01
-1.47038662e+01 -6.81384843e+00 8.70637573e+00 -6.81384843e+00 -1.11305094e+01 5.50582274e-01 8.70637573e+00 5.50582274e-01 -5.25634650e+01
2.91795130e+01 9.95551080e-01 -3.93463749e+00 9.95551080e-01 2.81022524e+01 2.81457059e-01 -3.93463749e+00 2.81457059e-01 2.96024823e+01
-3.87308788e+00 -4.99420599e+00 9.32136192e+00 -4.99420599e+00 -9.01627827e+00 2.59140952e+00 9.32136192e+00 2.59140952e+00 -3.60539314e+01
1.68553591e+01 -5.06094825e+00 -6.90779328e+00 -5.06094825e+00 5.62730789e+00 1.91173971e+00 -6.90779328e+00 1.91173971e+00 -4.50590134e+00
-4.12331988e+01 -1.18263339e+01 1.21117207e+01 -1.18263339e+01 -3.24910965e+01 5.85337698e+00 1.21117207e+01 5.85337698e+00 -9.97099482e+01
4.81184125e-02 6.22117668e-01 1.72667779e-01 6.22117668e-01 -8.99672270e+00 -8.28064978e-01 1.72667779e-01 -8.28064978e-01 -3.84049710e+01
7.10765171e+00 2.74479311e-01 2.93694720e-01 2.74479311e-01 2.55230761e+00 1.43021159e-03 2.93694720e-01 1.43021159e-03 -1.91383424e+01
2.83618906e+00 1.02463634e-01 1.01106636e+00 1.02463634e-01 -3.93794483e+00 -6.30511919e-01 1.01106636e+00 -6.30511919e-01 -3.03984380e+01
7.32551995e+00 9.79563287e-02 8.35430279e-01 9.79563287e-02 4.44623911e+00 -3.20083946e-01 8.35430279e-01 -3.20083946e-01 -1.70156263e+01
1.73012240e+01 -1.47154137e-01 -8.02323967e-02 -1.47154137e-01 9.72191757e+00 -1.09817421e+00 -8.02323967e-02 -1.09817421e+00 -7.13448524e-02
1.52863180e+01 -1.56258505e-01 1.07166452e+00 -1.56258505e-01 5.14813799e+00 1.56767994e+00 1.07166452e+00 1.56767994e+00 -7.36887568e+00
3.02359312e+01 -4.30292640e-01 9.89912115e-02 -4.30292640e-01 2.86537206e+01 -2.32226248e+00 9.89912115e-02 -2.32226248e+00 3.23378468e+01
2.91033696e+01 -1.74591831e+00 -2.96365678e-01 -1.74591831e+00 2.60610275e+01 2.90310351e+00 -2.96365678e-01 2.90310351e+00 3.09292145e+01
2.36020031e+01 -2.63620063e+00 -2.29653597e-01 -2.63620063e+00 2.18434467e+01 -2.55558522e+00 -2.29653597e-01 -2.55558522e+00 2.94995162e+01
3.21337315e+01 6.81091309e-01 -1.02935896e+01 6.81091309e-01 3.31625446e+01 3.84531425e+00 -1.02935896e+01 3.84531425e+00 5.18727714e+01
3.37668031e+01 -9.37772095e-01 3.47877586e+00 -9.37772095e-01 3.49761079e+01 -4.19031501e-01 3.47877586e+00 -4.19031501e-01 3.48040498e+01
2.71864916e+01 4.88490327e+00 -9.57986005e+00 4.88490327e+00 3.55399818e+01 -1.14902566e+00 -9.57986005e+00 -1.14902566e+00 4.47519958e+01
1.82748927e+01 3.41556954e+00 -5.06903410e-01 3.41556954e+00 8.03202438e+00 1.45631850e+00 -5.06903410e-01 1.45631850e+00 3.04112332e+01
4.34170990e+01 1.02586756e+01 -5.34691167e+00 1.02586756e+01 3.15566376e+01 -1.68208933e+00 -5.34691167e+00 -1.68208933e+00 5.99312735e+01
2.98685765e+00 -8.00430596e-01 2.06426054e-01 -8.00430596e-01 -8.34171540e+00 -1.19990715e+00 2.06426054e-01 -1.19990715e+00 -3.36945610e+01
2.74014378e+00 -8.27545881e-01 2.67359272e-01 -8.27545881e-01 -5.09364462e+00 -4.86919377e-02 2.67359272e-01 -4.86919377e-02 -3.14844170e+01
8.59252864e+00 -1.15888445e+00 1.37366850e+00 -1.15888445e+00 1.99969721e+00 3.29574235e-02 1.37366850e+00 3.29574235e-02 -1.72424260e+01
5.60140884e+00 -6.60443246e-01 2.62364432e-01 -6.60443246e-01 6.16821036e-01 -1.30878119e-01 2.62364432e-01 -1.30878119e-01 -2.27979586e+01
1.59196835e+01 -2.26816199e+00 -9.51535148e-01 -2.26816199e+00 1.02028517e+01 -2.18904778e+00 -9.51535148e-01 -2.18904778e+00 -3.30780029e-01
1.84658059e+01 -1.05112890e+00 -7.95356952e-01 -1.05112890e+00 1.36840788e+01 2.85118605e+00 -7.95356952e-01 2.85118605e+00 7.17712474e+00
1.96041374e+01 -2.04693034e-01 5.05202934e-01 -2.04693034e-01 2.50937080e+01 -2.79333445e+00 5.05202934e-01 -2.79333445e+00 1.96009738e+01
2.85352616e+01 7.52671008e-01 -4.53284015e-01 7.52671008e-01 3.34386811e+01 -2.09485436e+00 -4.53284015e-01 -2.09485436e+00 3.40448236e+01
2.09451561e+01 1.43606438e+00 7.54671908e-01 1.43606438e+00 2.49044097e+01 -2.20237945e+00 7.54671908e-01 -2.20237945e+00 2.54412254e+01
1.39866753e+01 3.21082244e+00 2.17599695e-01 3.21082244e+00 1.04858774e+01 2.27781439e+00 2.17599695e-01 2.27781439e+00 3.78524830e+00
-1.02821841e+01 -7.51990747e+00 1.62819445e-01 -7.51990747e+00 -3.10736177e+01 1.42649004e+00 1.62819445e-01 1.42649004e+00 -1.46583338e+01
1.27345181e+01 2.27988903e+00 -7.98575670e-01 2.27988903e+00 1.85329399e+01 9.32453655e-01 -7.98575670e-01 9.32453655e-01 1.48482374e+01
7.93270826e-01 -5.87475586e+00 1.38405514e+00 -5.87475586e+00 -2.08151827e+01 -1.84596843e+00 1.38405514e+00 -1.84596843e+00 -4.98566031e+00
2.38477357e+00 -2.64733823e+00 -2.54280186e+00 -2.64733823e+00 8.98657199e+00 -7.81836058e-01 -2.54280186e+00 -7.81836058e-01 -3.02757583e+00
4.02065282e+00 -2.19595377e+00 1.11882542e+00 -2.19595377e+00 -5.09425184e+00 -4.02644116e-01 1.11882542e+00 -4.02644116e-01 -2.92825599e+01
1.72393751e+00 -1.52378801e+00 4.55141947e-01 -1.52378801e+00 -6.45676947e+00 -1.35490899e-02 4.55141947e-01 -1.35490899e-02 -3.39100897e+01
1.01948806e+01 -1.35445868e+00 8.12553596e-01 -1.35445868e+00 6.10849631e+00 2.82026299e-01 8.12553596e-01 2.82026299e-01 -1.16185625e+01
4.80481005e+00 -7.34749258e-01 8.26507807e-04 -7.34749258e-01 -1.48264694e+00 7.87547462e-01 8.26507807e-04 7.87547462e-01 -2.55577986e+01
1.51552055e+01 -2.26315927e+00 4.16063589e-01 -2.26315927e+00 9.53477335e+00 -2.61623778e+00 4.16063589e-01 -2.61623778e+00 -1.47186017e+00
9.73023981e+00 -2.33484202e+00 -7.19679859e-01 -2.33484202e+00 5.78162280e+00 2.62432455e+00 -7.19679859e-01 2.62432455e+00 -1.14498885e+01
1.52575985e+01 2.22995999e+00 2.76325965e+00 2.22995999e+00 1.41099811e+01 -1.60700528e+00 2.76325965e+00 -1.60700528e+00 2.14793301e+00
1.55531796e+01 -1.89288970e+00 -1.40975814e+00 -1.89288970e+00 1.32091966e+01 3.28582943e+00 -1.40975814e+00 3.28582943e+00 3.56516202e+00
1.39935364e+01 2.81265694e+00 -2.65120272e-01 2.81265694e+00 1.89738724e+01 -1.97125862e+00 -2.65120272e-01 -1.97125862e+00 2.05516416e+01
1.31796650e+01 2.99947366e+00 3.32948162e+00 2.99947366e+00 7.94246066e+00 -8.16476613e-01 3.32948162e+00 -8.16476613e-01 8.89510101e+00
-1.95230246e-01 7.51151323e-01 -3.59822981e-01 7.51151323e-01 2.50138789e+00 1.73670679e+00 -3.59822981e-01 1.73670679e+00 4.43505652e+00
3.39571954e+00 6.03106403e-01 -8.09359378e-01 6.03106403e-01 9.76131672e-01 -6.74700302e-01 -8.09359378e-01 -6.74700302e-01 2.79534709e-01
2.92864370e+00 4.35807586e-01 -1.35640794e+00 4.35807586e-01 -7.94783497e+00 3.62051100e-01 -1.35640794e+00 3.62051100e-01 -1.75995612e+00
9.72805192e-01 -1.11839867e+00 9.95840222e-01 -1.11839867e+00 -5.58959063e+00 -2.28001848e-01 9.95840222e-01 -2.28001848e-01 -2.47534017e-01
-2.19097447e+01 -2.81317651e+00 1.34162229e+00 -2.81317651e+00 -3.28981056e+01 -1.45760524e+00 1.34162229e+00 -1.45760524e+00 -8.77914410e+01
-1.95149364e+01 -1.26167667e+00 1.64276505e+00 -1.26167667e+00 -3.45000496e+01 -3.73114049e-02 1.64276505e+00 -3.73114049e-02 -8.64778519e+01
-9.83309136e+00 -1.55681244e+00 1.38548315e-02 -1.55681244e+00 -1.67297034e+01 -1.03905666e+00 1.38548315e-02 -1.03905666e+00 -5.80011244e+01
-2.02113800e+01 -1.53611809e+00 2.07296968e-01 -1.53611809e+00 -3.07932234e+01 9.43639755e-01 2.07296968e-01 9.43639755e-01 -8.41559105e+01
-3.15435143e+01 -6.80452418e+00 5.94708109e+00 -6.80452418e+00 -4.09345198e+01 -5.76676369e+00 5.94708109e+00 -5.76676369e+00 -1.05088650e+02
-1.68253970e+01 -4.35910038e+00 3.54273036e-01 -4.35910038e+00 -1.70459819e+01 2.24681094e-01 3.54273036e-01 2.24681094e-01 -6.57809420e+01
1.33751488e+00 3.91319275e-01 5.40806758e+00 3.91319275e-01 1.47519760e+01 -2.88337046e+00 5.40806758e+00 -2.88337046e+00 -1.11894798e+01
-3.89741516e+01 -9.47293419e+00 3.53309453e-01 -9.47293419e+00 -3.35464363e+01 1.26415096e+01 3.53309453e-01 1.26415096e+01 -1.03020531e+02
2.45291781e+01 2.99834400e+00 -1.20801221e+00 2.99834400e+00 3.42994223e+01 -5.68486571e+00 -1.20801221e+00 -5.68486571e+00 4.57364318e+01
-1.52037301e+01 -1.00938127e+01 2.07147408e+00 -1.00938127e+01 -1.48230317e+01 8.75897026e+00 2.07147408e+00 8.75897026e+00 -1.78613250e+01
-5.29118815e+00 -9.30320978e-01 1.33030868e+00 -9.30320978e-01 2.22070479e+00 1.81533074e+00 1.33030868e+00 1.81533074e+00 5.37703614e+00
-3.55976836e+00 -6.30931298e-01 6.79748605e-01 -6.30931298e-01 2.84845318e+00 -2.60451007e+00 6.79748605e-01 -2.60451007e+00 3.60405984e+00
-1.90908301e+00 2.49847960e+00 -5.94403982e-01 2.49847960e+00 -2.17252564e+00 5.68362296e-01 -5.94403982e-01 5.68362296e-01 -6.29566312e-01
-4.08295679e+00 3.02174568e-01 -2.10507095e-01 3.02174568e-01 6.87805831e-01 1.40091795e+00 -2.10507095e-01 1.40091795e+00 5.22235306e-01
-1.68165541e+00 2.95403833e-03 -1.88509483e-01 2.95403833e-03 1.15669823e+00 -3.95251885e-01 -1.88509483e-01 -3.95251885e-01 -3.04414811e+01
-2.86902584e-01 8.53969585e-02 4.42578904e-01 8.53969585e-02 1.49049181e+00 -3.99164852e-01 4.42578904e-01 -3.99164852e-01 -2.86287899e+01
2.70693883e+00 -1.87677983e-01 -2.88891364e-02 -1.87677983e-01 4.72291310e+00 2.12015329e-01 -2.88891364e-02 2.12015329e-01 -2.18713354e+01
-2.16876066e+00 3.57403047e-03 -2.32189309e-01 3.57403047e-03 8.52604985e-01 1.99386705e-01 -2.32189309e-01 1.99386705e-01 -3.12556789e+01
5.17983741e+00 -7.83440277e-01 4.70278092e-01 -7.83440277e-01 5.17325178e+00 3.22191458e-01 4.70278092e-01 3.22191458e-01 -1.87839942e+01
3.87255047e+00 -3.80256120e-01 -3.57652844e-01 -3.80256120e-01 5.00310206e+00 -7.90158830e-01 -3.57652844e-01 -7.90158830e-01 -2.02263703e+01
3.03369427e+00 -4.18966366e-02 -3.44725512e-01 -4.18966366e-02 2.76062453e+00 6.68814629e-02 -3.44725512e-01 6.68814629e-02 -2.37276489e+01
6.82941473e+00 -3.13440395e-01 -5.62248584e-01 -3.13440395e-01 6.25866508e+00 -4.25889812e-01 -5.62248584e-01 -4.25889812e-01 -1.58151106e+01
4.16999310e+00 -2.87625019e-01 8.36577686e-02 -2.87625019e-01 2.59925225e+00 -1.92658162e-01 8.36577686e-02 -1.92658162e-01 -2.26590245e+01
5.47524321e+00 -5.44050316e-01 -2.59699258e-01 -5.44050316e-01 5.23593700e+00 7.42864159e-01 -2.59699258e-01 7.42864159e-01 -1.83275326e+01
1.06168356e+01 -4.97116528e-01 4.19110805e-02 -4.97116528e-01 9.42294366e+00 5.52844580e-01 4.19110805e-02 5.52844580e-01 -8.25956082e+00
4.86826620e+00 -4.17177053e-01 -1.70718599e-02 -4.17177053e-01 3.85081944e+00 6.17282474e-01 -1.70718599e-02 6.17282474e-01 -2.05669521e+01
8.40847325e+00 4.24317002e-01 -2.69485265e-01 4.24317002e-01 9.26010561e+00 1.67246181e+00 -2.69485265e-01 1.67246181e+00 -1.06779270e+01
4.36238229e+00 2.64102191e-01 -9.89195291e-01 2.64102191e-01 3.63082445e+00 1.04411118e+00 -9.89195291e-01 1.04411118e+00 -2.11861379e+01
5.82236244e+00 -4.36910352e-01 2.69260951e-01 -4.36910352e-01 7.02368048e+00 -7.81273867e-01 2.69260951e-01 -7.81273867e-01 -1.60192553e+01
-1.32042046e+00 -5.15780039e-01 1.34281202e+00 -5.15780039e-01 1.02340722e+00 2.48964985e-02 1.34281202e+00 2.48964985e-02 -3.00835830e+01
-9.23597033e+00 -1.90260836e-01 -3.95083919e-01 -1.90260836e-01 -5.42253684e+00 -8.68594497e-02 -3.95083919e-01 -8.68594497e-02 -4.88312626e+01
-6.33355503e+01 -8.96957488e+00 1.83565083e+01 -8.96957488e+00 -6.43805165e+01 6.84884191e-01 1.83565083e+01 6.84884191e-01 -1.47500560e+02
-4.40043354e+01 -6.94918162e-01 7.37008043e-01 -6.94918162e-01 -3.96641402e+01 2.51251236e+00 7.37008043e-01 2.51251236e+00 -1.20297165e+02
-4.06380661e+01 -1.47700586e+00 2.64743382e+00 -1.47700586e+00 -3.37642645e+01 5.07911205e+00 2.64743382e+00 5.07911205e+00 -1.09043065e+02
-4.72886715e+01 -4.41154361e+00 2.35309601e+00 -4.41154361e+00 -3.65585794e+01 6.53081298e+00 2.35309601e+00 6.53081298e+00 -1.17880444e+02
1.43492190e+01 -3.85576067e-02 7.84294125e-01 -3.85576067e-02 1.57547064e+01 -9.51573784e-01 7.84294125e-01 -9.51573784e-01 2.40180242e+00
1.15594279e+01 -2.42205223e-01 9.87451710e-01 -2.42205223e-01 1.13929124e+01 8.01184205e-02 9.87451710e-01 8.01184205e-02 -5.07222843e+00
-3.64654056e+01 -2.03882990e+00 5.92312010e+00 -2.03882990e+00 -3.17700562e+01 1.30293363e+01 5.92312010e+00 1.30293363e+01 -8.71596322e+01
5.91196213e+01 5.83878100e+00 -1.44357638e+01 5.83878100e+00 5.87218189e+01 -6.13723600e+00 -1.44357638e+01 -6.13723600e+00 8.94394493e+01
1.52649658e+01 -4.24943654e-01 1.85412644e+00 -4.24943654e-01 1.34518902e+01 5.46787398e-01 1.85412644e+00 5.46787398e-01 2.04710442e+00
1.59332133e+01 8.43013808e-01 1.65546633e-01 8.43013808e-01 1.57475721e+01 4.78751423e-01 1.65546633e-01 4.78751423e-01 4.25918335e+00
3.14936970e+01 -1.58892279e+00 -3.61938819e-01 -1.58892279e+00 2.97731944e+01 -1.02206716e+00 -3.61938819e-01 -1.02206716e+00 3.32847755e+01
2.54867134e+01 -6.15835818e-01 -4.64450256e+00 -6.15835818e-01 2.69394792e+01 -1.71912521e-01 -4.64450256e+00 -1.71912521e-01 2.70165540e+01
1.75418697e+01 5.94254807e-02 1.82746183e-01 5.94254807e-02 1.46521957e+01 4.12288848e-02 1.82746183e-01 4.12288848e-02 5.00322360e+00
1.10442472e+01 -6.98751077e-01 4.75760866e-01 -6.98751077e-01 8.97470963e+00 4.20461928e-01 4.75760866e-01 4.20461928e-01 -8.20468712e+00
5.58846474e+00 -2.80345901e+00 8.99121493e-01 -2.80345901e+00 4.78375846e+00 2.47346435e+00 8.99121493e-01 2.47346435e+00 -1.63542843e+01
-2.21055689e+01 -1.98929931e+00 -1.89377738e-01 -1.98929931e+00 -2.01510389e+01 6.29124835e+00 -1.89377738e-01 6.29124835e+00 -7.80248272e+01
-2.97483605e+00 -8.93371850e-01 1.28252730e-02 -8.93371850e-01 -3.55678511e+00 -6.77508824e-02 1.28252730e-02 -6.77508824e-02 -3.71442471e+01
-5.32085705e+00 -6.18211418e-01 -3.07281554e-01 -6.18211418e-01 -8.57539630e+00 1.54462248e+00 -3.07281554e-01 1.54462248e+00 -4.48090687e+01
-1.24729223e+01 -3.93728696e-01 1.40566102e+00 -3.93728696e-01 -5.92178917e+00 -2.81927961e+00 1.40566102e+00 -2.81927961e+00 -4.92694874e+01
-9.02666321e+01 -4.19998074e+00 -6.50449109e+00 -4.19998074e+00 -8.47213650e+01 4.85403347e+00 -6.50449109e+00 4.85403347e+00 -2.19246277e+02
-2.37200573e-01 -5.97363889e-01 -2.74064235e-01 -5.97363889e-01 3.21947120e-01 2.68538103e-01 -2.74064235e-01 2.68538103e-01 -4.69840318e-01
-4.31051027e-01 -4.01312578e-02 -9.25607383e-02 -4.01312578e-02 -1.19628660e-01 -2.32745528e-01 -9.25607383e-02 -2.32745528e-01 1.65732555e-01
6.95883423e-01 -1.63946360e-01 -1.25635874e-01 -1.63946360e-01 -1.07268315e-01 5.76575316e-01 -1.25635874e-01 5.76575316e-01 -9.73632634e-01
3.70423496e-01 -7.21386731e-01 3.26218307e-02 -7.21386731e-01 -1.84960058e-01 -5.17522484e-01 3.26218307e-02 -5.17522484e-01 -5.70591688e-01
1.38535810e+00 3.97147443e-02 1.51563298e-01 3.97147443e-02 2.15432072e+00 -1.00258393e-02 1.51563298e-01 -1.00258393e-02 -2.61953487e+01
2.11562560e+00 4.68194142e-01 2.86849523e-02 4.68194142e-01 2.09191471e+00 2.73376405e-01 2.86849523e-02 2.73376405e-01 -2.54155331e+01
6.53994734e+00 -1.95176559e-01 3.52627859e-02 -1.95176559e-01 7.13032975e+00 4.55216413e-01 3.52627859e-02 4.55216413e-01 -1.51776473e+01
1.91576439e+00 1.87665569e-01 1.41352612e-01 1.87665569e-01 3.32783574e+00 -1.98805528e-01 1.41352612e-01 -1.98805528e-01 -2.43063990e+01
7.14347982e+00 -8.00277725e-01 1.65665871e-01 -8.00277725e-01 6.42014861e+00 -6.14775503e-02 1.65665871e-01 -6.14775503e-02 -1.53091427e+01
6.04009420e+00 -4.93711507e-01 8.30561431e-01 -4.93711507e-01 6.02979660e+00 8.89991660e-01 8.30561431e-01 8.89991660e-01 -1.67231244e+01
6.55880970e+00 1.26920233e-01 2.78378321e-01 1.26920233e-01 5.60135019e+00 6.35264333e-01 2.78378321e-01 6.35264333e-01 -1.67555928e+01
1.13623911e+01 -4.22779839e-02 5.60244883e-02 -4.22779839e-02 9.93371564e+00 -6.64686359e-02 5.60244883e-02 -6.64686359e-02 -6.96659555e+00
9.10865177e+00 9.42315590e-02 -1.79286330e-01 9.42315590e-02 7.18914628e+00 4.80470320e-01 -1.79286330e-01 4.80470320e-01 -1.22485131e+01
5.86470705e+00 5.75607829e-03 -4.76750073e-01 5.75607829e-03 3.76947296e+00 1.25605045e-01 -4.76750073e-01 1.25605045e-01 -1.94864344e+01
1.23561366e+01 -1.94427943e-01 -3.65398801e-02 -1.94427943e-01 1.07963525e+01 3.14491652e-02 -3.65398801e-02 3.14491652e-02 -4.87595224e+00