<VTKFile type="UnstructuredGrid" version="0.1" byte_order="LittleEndian">
<UnstructuredGrid>
<Piece NumberOfPoints="191" NumberOfCells="79">
<Points>
<DataArray type="Float64" NumberOfComponents="3" format="ascii">
 1.04285657e+00  5.23785305e+00  1.88371480e+00
 2.07148719e+00  5.22611904e+00  1.90530443e+00
 2.07296562e+00  6.28593779e+00  1.86279547e+00
 1.03762293e+00  6.27958727e+00  1.85387230e+00
 1.03483415e+00  5.27428675e+00  2.82189322e+00
 2.07669783e+00  5.27017403e+00  2.83182216e+00
 2.06446862e+00  6.34683132e+00  2.77941561e+00
 1.03810048e+00  6.31539392e+00  2.78644824e+00
 3.12149954e+00  5.20914936e+00  1.92655599e+00
 3.13187122e+00  6.27352238e+00  1.86574376e+00
 3.11713839e+00  5.26154089e+00  2.80998921e+00
 3.16918731e+00  6.32240057e+00  2.72885966e+00
 5.12794828e+00  5.19726229e+00  2.00003386e+00
 6.12794828e+00  5.19892502e+00  2.00003195e+00
 6.12628412e+00  6.19893265e+00  1.99998260e+00
 5.12625694e+00  6.19727612e+00  1.99996567e+00
 5.12793875e+00  5.19732618e+00  3.00002193e+00
 6.12793159e+00  5.19899750e+00  3.00004005e+00
 6.12626171e+00  6.19898844e+00  2.99997258e+00
 5.12627697e+00  6.19731522e+00  2.99997544e+00
 0.00000000e+00  0.00000000e+00  2.73525858e+00
 1.05029416e+00  0.00000000e+00  2.73327208e+00
 1.05322146e+00  1.05516732e+00  2.73916698e+00
 0.00000000e+00  1.05309021e+00  2.74431133e+00
 0.00000000e+00  0.00000000e+00  3.64501858e+00
 1.06773520e+00  0.00000000e+00  3.64572263e+00
 1.06958425e+00  1.05515206e+00  3.64749122e+00
 0.00000000e+00  1.05161333e+00  3.65587282e+00
 2.11160088e+00  0.00000000e+00  2.71928835e+00
 2.09965348e+00  1.04722822e+00  2.72822070e+00
 2.13119841e+00  0.00000000e+00  3.63571978e+00
 2.13410592e+00  1.05821562e+00  3.63537312e+00
 3.16606665e+00  0.00000000e+00  2.70387602e+00
 3.16717768e+00  1.04254842e+00  2.70760679e+00
 3.19563341e+00  0.00000000e+00  3.61917305e+00
 3.18901825e+00  1.05104899e+00  3.62078977e+00
 4.23163939e+00  0.00000000e+00  2.69040585e+00
 4.23455763e+00  1.04425728e+00  2.68560314e+00
 4.25230312e+00  0.00000000e+00  3.60703802e+00
 4.24922562e+00  1.04263484e+00  3.60032821e+00
 5.30070305e+00  0.00000000e+00  2.67389846e+00
 5.30121660e+00  1.04709661e+00  2.67627573e+00
 5.30721188e+00  0.00000000e+00  3.59818411e+00
 5.30636406e+00  1.04162788e+00  3.58636284e+00
 6.36455345e+00  0.00000000e+00  2.66845798e+00
 6.36413336e+00  1.04778111e+00  2.67028022e+00
 6.35157776e+00  0.00000000e+00  3.59477782e+00
 6.36593342e+00  1.04198039e+00  3.58643866e+00
 1.03756964e+00  2.10427475e+00  2.76016212e+00
 0.00000000e+00  2.11865091e+00  2.76350665e+00
 1.06934416e+00  2.11136556e+00  3.67063856e+00
 0.00000000e+00  2.11138487e+00  3.67230225e+00
 2.09927034e+00  2.10614944e+00  2.73855209e+00
 2.14350438e+00  2.11822796e+00  3.64338541e+00
 3.15688157e+00  2.11261749e+00  2.69640541e+00
 3.19872260e+00  2.11178041e+00  3.58785748e+00
 4.22997522e+00  2.12449265e+00  2.68560171e+00
 4.23914194e+00  2.09781742e+00  3.56989026e+00
 5.29598856e+00  2.11717510e+00  2.68773961e+00
 5.30136395e+00  2.10966372e+00  3.57086539e+00
 6.35270023e+00  2.12430120e+00  2.68234634e+00
 6.35569382e+00  2.11296701e+00  3.56988287e+00
 1.03338873e+00  3.17862463e+00  2.80360627e+00
 0.00000000e+00  3.17538738e+00  2.79970789e+00
 1.06576216e+00  3.17603445e+00  3.70564866e+00
 0.00000000e+00  3.17472100e+00  3.71552539e+00
 2.08916378e+00  3.15683627e+00  2.77279115e+00
 2.16085124e+00  3.18074059e+00  3.63313437e+00
 3.07020116e+00  3.13344479e+00  2.47234273e+00
 3.22696400e+00  3.16081238e+00  3.51690364e+00
 1.03378546e+00  4.22107077e+00  2.83517385e+00
 0.00000000e+00  4.22924566e+00  2.82811236e+00
 1.05289888e+00  4.24301291e+00  3.76839757e+00
 0.00000000e+00  4.25050974e+00  3.74727869e+00
 0.00000000e+00  5.26803780e+00  2.81778002e+00
 1.04732668e+00  5.31796837e+00  3.74803257e+00
 0.00000000e+00  5.29813623e+00  3.73447037e+00
 2.07959080e+00  4.22167063e+00  2.86915064e+00
 2.11887527e+00  4.25613880e+00  3.74370670e+00
 2.11423397e+00  5.29703903e+00  3.75199986e+00
 0.00000000e+00  6.31942749e+00  2.77518582e+00
 1.06670070e+00  6.37396955e+00  3.67798281e+00
 0.00000000e+00  6.39038229e+00  3.69653821e+00
 2.11399198e+00  6.39577627e+00  3.68022418e+00
 3.15117478e+00  5.27516460e+00  3.62550735e+00
 3.23800015e+00  6.31346655e+00  3.62890553e+00
 0.00000000e+00  0.00000000e+00  4.54628611e+00
 1.08406913e+00  0.00000000e+00  4.54350090e+00
 1.08783126e+00  1.05703413e+00  4.54673815e+00
 0.00000000e+00  1.05305684e+00  4.54977560e+00
 2.15384078e+00  0.00000000e+00  4.53881359e+00
 2.16416121e+00  1.06614721e+00  4.53753567e+00
 3.21311331e+00  0.00000000e+00  4.53044701e+00
 3.21951723e+00  1.06841922e+00  4.52952385e+00
 4.26729441e+00  0.00000000e+00  4.52181578e+00
 4.26081276e+00  1.06185210e+00  4.52123547e+00
 5.31101322e+00  0.00000000e+00  4.51771736e+00
 5.30440617e+00  1.05579960e+00  4.51322412e+00
 6.34639406e+00  0.00000000e+00  4.51511478e+00
 6.34799767e+00  1.06070065e+00  4.51595640e+00
 1.10040033e+00  2.12099242e+00  4.55370426e+00
 0.00000000e+00  2.11049104e+00  4.56143475e+00
 2.18300152e+00  2.13336229e+00  4.53660679e+00
 3.23672438e+00  2.13438034e+00  4.50989532e+00
 4.26791000e+00  2.12063289e+00  4.48777914e+00
 5.29050541e+00  2.10360408e+00  4.47534370e+00
 6.31867743e+00  2.11036181e+00  4.47541714e+00
 1.10225856e+00  3.16799283e+00  4.59164286e+00
 0.00000000e+00  3.18693757e+00  4.60727119e+00
 2.20476007e+00  3.17478871e+00  4.52967024e+00
 3.27376938e+00  3.16739392e+00  4.45766354e+00
 4.25784683e+00  3.07298493e+00  3.39038801e+00
 4.29063511e+00  3.15003991e+00  4.43576145e+00
 1.10795927e+00  4.23781204e+00  4.66831779e+00
 0.00000000e+00  4.22431183e+00  4.62736273e+00
 2.21676350e+00  4.21999311e+00  4.56887913e+00
 1.08913314e+00  5.35066462e+00  4.60018206e+00
 0.00000000e+00  5.35876322e+00  4.60066652e+00
 1.10806322e+00  6.45818758e+00  4.56651068e+00
 0.00000000e+00  6.45239067e+00  4.58028030e+00
 2.16425014e+00  5.32279921e+00  4.60591841e+00
 2.24771929e+00  6.39969063e+00  4.57595587e+00
 3.25185943e+00  5.23413134e+00  4.48603582e+00
 3.35525346e+00  6.26377344e+00  4.51615906e+00
 4.06283998e+00  5.20668268e+00  3.31587982e+00
 4.21488953e+00  6.19976711e+00  3.40319300e+00
 4.32482958e+00  5.15005922e+00  4.43447018e+00
 4.34338999e+00  6.15136719e+00  4.43481255e+00
 5.32515240e+00  5.13302660e+00  3.43461895e+00
 6.32498789e+00  5.11577940e+00  3.43459845e+00
 6.34224176e+00  6.11563540e+00  3.43464112e+00
 5.34235239e+00  6.13291740e+00  3.43471241e+00
 5.32511902e+00  5.13300562e+00  4.43461895e+00
 6.32504654e+00  5.11574173e+00  4.43461895e+00
 6.34224319e+00  6.11560726e+00  4.43463421e+00
 5.34248447e+00  6.13276148e+00  4.43470573e+00
 0.00000000e+00  0.00000000e+00  5.43464899e+00
 1.08922350e+00  0.00000000e+00  5.43464899e+00
 1.09633207e+00  1.06122124e+00  5.43464899e+00
 0.00000000e+00  1.05497575e+00  5.43464899e+00
 2.16542721e+00  0.00000000e+00  5.43464899e+00
 2.17235780e+00  1.07120633e+00  5.43464899e+00
 3.22066355e+00  0.00000000e+00  5.43464899e+00
 3.23179746e+00  1.07624698e+00  5.43464899e+00
 4.26995134e+00  0.00000000e+00  5.43464899e+00
 4.27079248e+00  1.07553768e+00  5.43464899e+00
 5.31052971e+00  0.00000000e+00  5.43464899e+00
 5.30609322e+00  1.07038999e+00  5.43464899e+00
 6.35285234e+00  0.00000000e+00  5.43464899e+00
 6.32961464e+00  1.07963121e+00  5.43464899e+00
 1.11633325e+00  2.11088872e+00  5.43464899e+00
 0.00000000e+00  2.10534239e+00  5.43464899e+00
 2.20528507e+00  2.13442135e+00  5.43464899e+00
 3.25120831e+00  2.14566779e+00  5.43464899e+00
 4.27920818e+00  2.13535094e+00  5.43464899e+00
 5.28777456e+00  2.12026906e+00  5.43464899e+00
 6.30645895e+00  2.12064648e+00  5.43464899e+00
 1.12484396e+00  3.20897746e+00  5.43464899e+00
 0.00000000e+00  3.21512103e+00  5.43464899e+00
 2.23807287e+00  3.18384743e+00  5.43464899e+00
 3.28916526e+00  3.17744803e+00  5.43464899e+00
 4.29131031e+00  3.15080500e+00  5.43464899e+00
 5.29102182e+00  3.13236570e+00  4.43394613e+00
 5.29156637e+00  3.13306093e+00  5.43464899e+00
 6.29305601e+00  3.11792278e+00  4.43330050e+00
 6.29329395e+00  3.11968184e+00  5.43464899e+00
 3.30813575e+00  4.16874361e+00  4.41840649e+00
 3.31728697e+00  4.18047047e+00  5.43464899e+00
 2.30496264e+00  4.21077156e+00  5.43464899e+00
 4.30819464e+00  4.14980030e+00  4.43490553e+00
 4.30834818e+00  4.15000820e+00  5.43464899e+00
 5.30797148e+00  4.13320780e+00  4.43459940e+00
 5.30805874e+00  4.13311052e+00  5.43464899e+00
 6.30770111e+00  4.11614847e+00  4.43469381e+00
 6.30760956e+00  4.11600208e+00  5.43464899e+00
 0.00000000e+00  4.19460917e+00  5.43464899e+00
 1.13739932e+00  4.22377539e+00  5.43464899e+00
 1.12204230e+00  5.37864161e+00  5.43464899e+00
 0.00000000e+00  5.40097141e+00  5.43464899e+00
 5.32506466e+00  5.13300323e+00  5.43464899e+00
 4.32522821e+00  5.15013695e+00  5.43464899e+00
 6.32508326e+00  5.11576653e+00  5.43464899e+00
 1.13138402e+00  6.47948599e+00  5.43464899e+00
 0.00000000e+00  6.46975136e+00  5.43464899e+00
 2.20611739e+00  5.32922268e+00  5.43464899e+00
 2.29663920e+00  6.39515448e+00  5.43464899e+00
 3.26991844e+00  5.21307611e+00  5.43464899e+00
 3.37644410e+00  6.24832630e+00  5.43464899e+00
 4.34376335e+00  6.15058851e+00  5.43464899e+00
 5.34249926e+00  6.13270044e+00  5.43464899e+00
 6.34223890e+00  6.11560488e+00  5.43464899e+00
</DataArray>
</Points>
<PointData Tensors="Stress_Components,Plastic_strain_components" Vevtors="Spatial_displacement,Reaction_force" Scalars="Equivalent_plastic_strain,Stress_Mises,Stress_Max_Principal,Stress_Mid_Principal,Stress_Min_Principal,Stress_Pressure,Stress_Tresca,Stress_Third_Invariant,Plastic_strain_Max_Principal,Plastic_strain_Min_Principal">
<DataArray type="Float32" Name="Stress_Components" NumberOfComponents="9" format="ascii">
1.71248482e+01 2.78663710e-02 1.96796753e-01 2.78663710e-02 1.42525195e+01 6.16546022e-02 1.96796753e-01 6.16546022e-02 4.13078070e+00
5.10821348e+00 -2.78600945e+00 9.02214845e-01 -2.78600945e+00 4.36588752e+00 2.44581473e+00 9.02214845e-01 2.44581473e+00 -1.73795504e+01
-1.16468763e+01 -3.41920264e-01 1.36925784e+00 -3.41920264e-01 -5.18738651e+00 -2.71972811e+00 1.36925784e+00 -2.71972811e+00 -4.76075172e+01
-2.67124957e+00 -8.63836363e-01 -2.40344070e-02 -8.63836363e-01 -3.13806349e+00 -6.27939301e-02 -2.40344070e-02 -6.27939301e-02 -3.63670053e+01
1.63096898e+01 6.87011005e-02 9.09751951e-01 6.87011005e-02 1.69915237e+01 -3.27784389e-01 9.09751951e-01 -3.27784389e-01 5.96981645e+00
2.27920767e+01 -2.35115506e+00 3.15478773e+00 -2.35115506e+00 2.53883741e+01 3.41125454e-01 3.15478773e+00 3.41125454e-01 1.78956282e+01
-1.30837468e+01 -2.15599522e-01 6.69815570e-01 -2.15599522e-01 9.66296196e-02 -3.40228546e-02 6.69815570e-01 -3.40228546e-02 -4.20872746e+01
1.18566564e+01 -2.24998698e-01 3.76757277e-01 -2.24998698e-01 1.06013871e+01 5.55809516e-01 3.76757277e-01 5.55809516e-01 -6.08533716e+00
-2.15790066e+01 -1.90924092e+00 -2.67844673e-01 -1.90924092e+00 -1.97477825e+01 6.20419905e+00 -2.67844673e-01 6.20419905e+00 -7.68965317e+01
-8.89002533e+01 -3.99425709e+00 -6.26799178e+00 -3.99425709e+00 -8.33795128e+01 4.81763721e+00 -6.26799178e+00 4.81763721e+00 -2.16366417e+02
-7.38798647e+01 8.78977617e+00 -2.76357438e+01 8.78977617e+00 -7.81433237e+01 -2.16988603e+00 -2.76357438e+01 -2.16988603e+00 -1.74149855e+02
-5.25333445e+01 5.26649952e-02 -5.15286064e+00 5.26649952e-02 -7.67099562e+01 -1.09681940e+00 -5.15286064e+00 -1.09681940e+00 -1.67815977e+02
-2.39581622e-01 -6.01176828e-01 -2.70406500e-01 -6.01176828e-01 3.11623229e-01 2.66514026e-01 -2.70406500e-01 2.66514026e-01 -4.55580443e-01
-4.31192994e-01 -4.10055108e-02 -9.47630405e-02 -4.10055108e-02 -1.12574011e-01 -2.38231108e-01 -9.47630405e-02 -2.38231108e-01 1.60352685e-01
6.95520371e-01 -1.57246053e-01 -1.20170746e-01 -1.57246053e-01 -1.06318593e-01 5.80173381e-01 -1.20170746e-01 5.80173381e-01 -9.72671747e-01
3.79301988e-01 -7.17626899e-01 2.28425264e-02 -7.17626899e-01 -1.89918200e-01 -5.19447774e-01 2.28425264e-02 -5.19447774e-01 -5.72971366e-01
2.34581873e-01 2.04113990e-01 3.75087172e-01 2.04113990e-01 6.11324050e-02 1.58611402e-01 3.75087172e-01 1.58611402e-01 -3.20765078e-02
-5.61957844e-02 2.41940729e-02 1.12064183e-01 2.41940729e-02 -1.58842161e-01 1.33976433e-02 1.12064183e-01 1.33976433e-02 4.78802949e-01
-5.12316711e-02 5.95521666e-02 -2.45439708e-01 5.95521666e-02 2.05963433e-01 -5.41226923e-01 -2.45439708e-01 -5.41226923e-01 1.08965263e-01
-3.16219777e-01 2.39498720e-01 -1.35263979e-01 2.39498720e-01 -1.29897282e-01 3.43902826e-01 -1.35263979e-01 3.43902826e-01 7.09653974e-01
1.25085235e+00 3.86352781e-02 1.69982575e-01 3.86352781e-02 2.01349068e+00 -1.97007088e-02 1.69982575e-01 -1.97007088e-02 -2.64945450e+01
1.95506603e+00 4.66457799e-01 4.76194370e-02 4.66457799e-01 1.92778400e+00 2.84023933e-01 4.76194370e-02 2.84023933e-01 -2.57666129e+01
6.32254275e+00 -2.14322569e-01 6.54159468e-02 -2.14322569e-01 6.91660067e+00 4.60464826e-01 6.54159468e-02 4.60464826e-01 -1.56423153e+01
1.76322621e+00 1.91319477e-01 1.71561800e-01 1.91319477e-01 3.18680471e+00 -2.05400027e-01 1.71561800e-01 -2.05400027e-01 -2.46234578e+01
6.65560055e+00 -2.99656959e-02 5.90839416e-01 -2.99656959e-02 5.59503841e+00 2.14281868e-01 5.90839416e-01 2.14281868e-01 -1.67373562e+01
3.74199569e-01 2.25835565e-01 -2.09671939e-01 2.25835565e-01 -6.93021417e-02 1.10712762e+00 -2.09671939e-01 1.10712762e+00 -2.95822999e+01
4.37083009e+00 3.65011166e-01 2.65534767e-01 3.65011166e-01 3.80632386e+00 4.07996626e-01 2.65534767e-01 4.07996626e-01 -2.11441029e+01
1.22462718e+00 3.55536595e-01 6.19691566e-01 3.55536595e-01 -2.40983546e-01 -6.51589300e-01 6.19691566e-01 -6.51589300e-01 -2.88697324e+01
6.96556580e+00 -8.11035082e-01 1.66082937e-01 -8.11035082e-01 6.21077740e+00 -4.99203708e-02 1.66082937e-01 -4.99203708e-02 -1.57270823e+01
6.04011810e+00 -5.08943253e-01 8.39854317e-01 -5.08943253e-01 6.00628060e+00 8.96762914e-01 8.39854317e-01 8.96762914e-01 -1.67421872e+01
2.23297000e-01 1.08579306e-01 7.75609771e-03 1.08579306e-01 2.98322797e-01 3.38267040e-01 7.75609771e-03 3.38267040e-01 -2.94903304e+01
-1.39938062e+00 6.80636761e-02 1.06920291e+00 6.80636761e-02 3.76948118e-02 1.83373811e+00 1.06920291e+00 1.83373811e+00 -3.11884005e+01
6.64918581e+00 1.30523110e-01 2.74777465e-01 1.30523110e-01 5.64856589e+00 6.26818459e-01 2.74777465e-01 6.26818459e-01 -1.66052151e+01
1.12683017e+01 -4.75560669e-02 5.88377066e-02 -4.75560669e-02 9.80005041e+00 -5.56515551e-02 5.88377066e-02 -5.56515551e-02 -7.20861292e+00
3.44337007e+00 -7.52068222e-01 3.36674765e-01 -7.52068222e-01 2.44007242e+00 8.78426543e-01 3.36674765e-01 8.78426543e-01 -2.35509326e+01
3.46534884e+00 -6.46027504e-01 5.26293268e-01 -6.46027504e-01 3.46810597e+00 7.47067530e-01 5.26293268e-01 7.47067530e-01 -2.23682843e+01
9.15591292e+00 1.05872719e-01 -1.63654750e-01 1.05872719e-01 7.19390196e+00 4.63876354e-01 -1.63654750e-01 4.63876354e-01 -1.21893312e+01
5.60027862e+00 2.05892297e-02 -4.78691017e-01 2.05892297e-02 3.48081553e+00 1.11348753e-01 -4.78691017e-01 1.11348753e-01 -2.00828686e+01
7.11267304e+00 -3.06526888e-01 -1.71070561e-01 -3.06526888e-01 5.39945889e+00 5.75839199e-01 -1.71070561e-01 5.75839199e-01 -1.64213638e+01
1.51022778e+01 -3.92785997e-01 3.26435242e-01 -3.92785997e-01 1.38925489e+01 -2.32523123e-01 3.26435242e-01 -2.32523123e-01 1.31694555e+00
1.23792619e+01 -1.89473948e-01 -2.54941513e-02 -1.89473948e-01 1.07724009e+01 1.61445588e-02 -2.54941513e-02 1.61445588e-02 -4.87332731e+00
9.79549897e+00 4.44632643e-02 -3.20368296e-01 4.44632643e-02 7.24301410e+00 8.62307763e-02 -3.20368296e-01 8.62307763e-02 -1.14688375e+01
1.65411862e+01 -1.40418534e-01 -1.39644945e-01 -1.40418534e-01 1.66284854e+01 -3.04845465e-01 -1.39644945e-01 -3.04845465e-01 5.84884834e+00
8.18727723e+00 -2.18721387e-01 -1.52916245e-01 -2.18721387e-01 6.83106208e+00 -3.25063694e-01 -1.52916245e-01 -3.25063694e-01 -1.37120507e+01
1.32774475e+01 -1.02610421e-01 -1.07233886e-01 -1.02610421e-01 1.25506105e+01 -2.82787085e-01 -1.07233886e-01 -2.82787085e-01 -1.93500423e+00
1.76246346e+01 2.91477419e-01 -4.39654927e-01 2.91477419e-01 1.56405926e+01 5.27528822e-02 -4.39654927e-01 5.27528822e-02 5.95650482e+00
1.89058568e+01 4.58484687e-01 2.64602490e-02 4.58484687e-01 1.96856496e+01 -6.93400744e-01 2.64602490e-02 -6.93400744e-01 1.18103886e+01
1.19985842e+01 5.45626029e-01 3.64070730e-01 5.45626029e-01 1.08084165e+01 -9.30618383e-01 3.64070730e-01 -9.30618383e-01 -5.15071321e+00
2.50528848e+00 -7.78513180e-01 1.37995733e+00 -7.78513180e-01 4.84869885e+00 2.73305029e-02 1.37995733e+00 2.73305029e-02 -2.15141258e+01
3.54803324e+00 -1.08023441e+00 9.33880594e-01 -1.08023441e+00 6.89927274e+00 -2.63507370e-01 9.33880594e-01 -2.63507370e-01 -1.83531712e+01
-5.03660050e+00 4.60407048e-01 2.34172169e+00 4.60407048e-01 -6.24351287e+00 2.09733446e+00 2.34172169e+00 2.09733446e+00 -4.16639469e+01
8.16344976e-01 -1.06251818e-01 4.15134189e-01 -1.06251818e-01 1.09486675e+00 -6.19864766e-02 4.15134189e-01 -6.19864766e-02 -2.79920371e+01
1.68588800e+01 2.83993647e+00 4.24217641e+00 2.83993647e+00 1.52902820e+01 3.49878700e+00 4.24217641e+00 3.49878700e+00 -2.03037017e+00
-6.68586218e+00 8.97834674e-01 -1.05790839e-01 8.97834674e-01 -6.47141796e+00 2.90836240e-01 -1.05790839e-01 2.90836240e-01 -4.28077610e+01
-8.12953667e+01 -6.89104342e+00 -1.77636321e+01 -6.89104342e+00 -8.21026390e+01 -2.11207578e+00 -1.77636321e+01 -2.11207578e+00 -1.86496623e+02
1.32790275e+01 1.43163324e+00 5.50054652e-01 1.43163324e+00 1.72862319e+01 1.35616796e+00 5.50054652e-01 1.35616796e+00 -1.78751693e+00
-5.21005468e+01 -1.32477028e+00 -4.02800116e+00 -1.32477028e+00 -4.74248805e+01 1.15026377e+00 -4.02800116e+00 1.15026377e+00 -1.37174711e+02
-3.74965031e+01 -1.94861673e+00 -1.76772263e+01 -1.94861673e+00 -4.73868502e+01 -1.31439779e+00 -1.76772263e+01 -1.31439779e+00 -9.92871132e+01
-3.46877260e+01 -1.65754011e+00 -1.25659220e-01 -1.65754011e+00 -3.02998443e+01 1.60697437e+00 -1.25659220e-01 1.60697437e+00 -1.00068222e+02
-4.67057600e+01 -3.91439840e-01 -4.34543896e+00 -3.91439840e-01 -4.10824327e+01 -1.70572756e+00 -4.34543896e+00 -1.70572756e+00 -1.24411850e+02
-2.90997686e+01 -2.62714863e+00 -7.72157639e-01 -2.62714863e+00 -2.01792421e+01 3.21140558e-01 -7.72157639e-01 3.21140558e-01 -8.24672699e+01
-4.68567495e+01 -4.38657629e+00 -4.93533587e+00 -4.38657629e+00 -3.54632092e+01 -3.76375614e+00 -4.93533587e+00 -3.76375614e+00 -1.16591656e+02
2.93319525e+00 1.18315520e-01 2.79193786e+00 1.18315520e-01 5.61616495e+00 5.98019877e-01 2.79193786e+00 5.98019877e-01 -1.99839065e+01
1.27770271e+01 9.19284290e-02 1.12713757e+00 9.19284290e-02 1.38704622e+01 -2.88450553e-01 1.12713757e+00 -2.88450553e-01 -1.02452898e+00
-9.99353886e+00 -4.15226672e-01 3.79687294e+00 -4.15226672e-01 -1.03758466e+01 1.68534735e+00 3.79687294e+00 1.68534735e+00 -5.09749140e+01
4.34971628e+00 4.86633200e-02 1.57604377e+00 4.86633200e-02 5.88149062e+00 9.47780348e-02 1.57604377e+00 9.47780348e-02 -1.88743300e+01
-1.10604336e+02 -1.21329926e+01 9.17933464e+00 -1.21329926e+01 -1.00829905e+02 -1.56941082e+01 9.17933464e+00 -1.56941082e+01 -2.31500423e+02
-2.09205475e+01 2.49766158e+00 2.49427367e+00 2.49766158e+00 -2.82472305e+01 -2.93288864e+00 2.49427367e+00 -2.93288864e+00 -8.40804421e+01
1.23997444e+02 1.31842680e+01 2.06799240e+01 1.31842680e+01 1.19693405e+02 2.17011070e+01 2.06799240e+01 2.17011070e+01 1.90498688e+02
6.73217901e+00 -5.42901018e+00 -8.53348223e+00 -5.42901018e+00 4.33433151e+00 -5.76136812e+00 -8.53348223e+00 -5.76136812e+00 -3.79379050e+00
2.41429198e+01 -6.95724381e-02 -2.36439333e+00 -6.95724381e-02 2.42693175e+01 2.42529665e-01 -2.36439333e+00 2.42529665e-01 2.15818518e+01
1.37673007e+01 -3.86408314e-01 1.24122778e+00 -3.86408314e-01 1.40842222e+01 6.66938078e-01 1.24122778e+00 6.66938078e-01 5.07374048e-01
2.14460371e+01 -5.92686246e-01 -2.27230435e-01 -5.92686246e-01 2.33894390e+01 1.08337512e+00 -2.27230435e-01 1.08337512e+00 1.93103488e+01
7.36709380e+00 -9.18935284e-01 2.42471220e+00 -9.18935284e-01 8.02297616e+00 1.73716267e+00 2.42471220e+00 1.73716267e+00 -1.26618257e+01
1.46551465e+01 -4.58448324e-02 7.87519962e-02 -4.58448324e-02 1.46400743e+01 2.52118468e-01 7.87519962e-02 2.52118468e-01 1.73251426e+00
2.07845479e+01 3.85988549e-01 1.02027369e+00 3.85988549e-01 2.16000250e+01 2.09073441e-01 1.02027369e+00 2.09073441e-01 1.60424252e+01
2.15555906e+00 1.91728188e+00 1.42651968e-01 1.91728188e+00 4.79964733e+00 1.21379060e+00 1.42651968e-01 1.21379060e+00 -2.22144722e+01
-5.84684559e+01 1.87427069e+00 6.10343083e+00 1.87427069e+00 -5.46878486e+01 1.91930610e+01 6.10343083e+00 1.91930610e+01 -1.32188616e+02
-1.04778015e+02 -3.74966484e+00 1.30570989e+01 -3.74966484e+00 -1.02180210e+02 1.18208504e+01 1.30570989e+01 1.18208504e+01 -2.50288879e+02
-5.52883713e+00 -3.06284003e+00 -2.99746816e+00 -3.06284003e+00 5.25480008e-01 5.06642761e+00 -2.99746816e+00 5.06642761e+00 -3.38104034e+01
3.68145084e+00 -4.44695711e-01 -3.26841101e-01 -4.44695711e-01 5.77099133e+00 7.99991705e-01 -3.26841101e-01 7.99991705e-01 -1.97808800e+01
1.49957609e+00 1.25537635e+00 -1.35184602e+00 1.25537635e+00 -2.59949207e-01 8.69260788e-01 -1.35184602e+00 8.69260788e-01 -2.86431885e+01
3.07667732e+00 -1.83271740e+00 2.33206719e+00 -1.83271740e+00 6.91618156e+00 -1.33696058e+00 2.33206719e+00 -1.33696058e+00 -1.89039192e+01
-2.28032141e+01 -3.56434751e+00 -4.32791498e+00 -3.56434751e+00 -1.75507269e+01 3.92879808e+00 -4.32791498e+00 3.92879808e+00 -6.93461266e+01
-8.91399066e+01 1.18720379e+01 4.28565641e-01 1.18720379e+01 -5.25713005e+01 -3.88383004e+01 4.28565641e-01 -3.88383004e+01 -1.26738050e+02
-2.42778091e+00 -3.97899540e+00 -7.86929915e-01 -3.97899540e+00 -7.84372330e+00 -3.74025981e+00 -7.86929915e-01 -3.74025981e+00 -3.64821885e+01
5.13435498e+00 -3.68186468e-02 1.98392794e-01 -3.68186468e-02 2.60900760e+00 -2.48423165e-02 1.98392794e-01 -2.48423165e-02 -2.15031738e+01
3.03579330e-01 1.27122797e-01 -5.33218253e-02 1.27122797e-01 -1.03569257e+00 7.30652275e-01 -5.33218253e-02 7.30652275e-01 -3.07111467e+01
8.12220515e-01 6.97679287e-01 2.50899064e-01 6.97679287e-01 -9.94240135e-01 3.81045551e-01 2.50899064e-01 3.81045551e-01 -3.01015106e+01
-2.31243551e-01 2.91529046e-01 3.99663080e-01 2.91529046e-01 -3.46726334e+00 -2.92798348e-01 3.99663080e-01 -2.92798348e-01 -3.38274770e+01
-5.51102525e+00 8.34687330e-01 -1.84484940e-01 8.34687330e-01 -3.86435050e+00 7.97220103e-01 -1.84484940e-01 7.97220103e-01 -4.00451148e+01
-6.42728645e+00 1.27276373e+00 4.90594375e-01 1.27276373e+00 -4.81619495e+00 1.51418057e+00 4.90594375e-01 1.51418057e+00 -4.18434839e+01
-6.66925371e+00 3.08339190e-01 5.74268050e-01 3.08339190e-01 -4.94488752e+00 3.86796586e-01 5.74268050e-01 3.86796586e-01 -4.25771875e+01
-1.33751621e+01 5.49978566e-01 7.51214024e-01 5.49978566e-01 -7.25169181e+00 1.81594445e+00 7.51214024e-01 1.81594445e+00 -5.15833875e+01
-4.42723727e+00 -1.26354071e+00 3.93569928e-01 -1.26354071e+00 -2.46413428e+00 5.75733411e-01 3.93569928e-01 5.75733411e-01 -3.73369650e+01
-2.17769396e+00 -7.08243227e-01 -1.75628509e-01 -7.08243227e-01 1.47126505e+00 -1.09685783e-01 -1.75628509e-01 -1.09685783e-01 -3.05112481e+01
4.69443631e+00 -5.45310996e-01 -2.77419491e-02 -5.45310996e-01 7.02896987e+00 -5.98531023e-01 -2.77419491e-02 -5.98531023e-01 -1.71866394e+01
8.92096829e+00 -1.07796632e+00 -2.04316654e-01 -1.07796632e+00 9.84499204e+00 -4.81803343e-02 -2.04316654e-01 -4.81803343e-02 -9.66328800e+00
5.06702900e-01 4.09302115e-01 8.31834346e-01 4.09302115e-01 5.13967538e+00 -1.36083263e+00 8.31834346e-01 -1.36083263e+00 -2.33739899e+01
-3.62962046e+00 -1.15265858e+00 1.21028364e-01 -1.15265858e+00 4.21537757e-02 -2.10190651e+00 1.21028364e-01 -2.10190651e+00 -3.31738043e+01
-6.61298208e+00 1.36987584e+00 9.10773076e-01 1.36987584e+00 -1.04230942e+01 1.77700156e+00 9.10773076e-01 1.77700156e+00 -4.79933760e+01
-2.08659697e+00 7.91929320e-01 2.46689655e-01 7.91929320e-01 -5.79251146e+00 -1.03910842e-01 2.46689655e-01 -1.03910842e-01 -3.83267708e+01
-8.42702258e+00 2.82278044e+00 3.69274843e-01 2.82278044e+00 -8.73420072e+00 1.00998561e+00 3.69274843e-01 1.00998561e+00 -4.81072215e+01
6.61895335e+00 1.70906643e+00 -5.40648288e+00 1.70906643e+00 8.55640757e+00 -6.33375518e-01 -5.40648288e+00 -6.33375518e-01 -1.05421661e+01
1.23333480e+01 -1.96941835e-01 -2.45520735e+00 -1.96941835e-01 1.78374607e+01 -5.94669591e-02 -2.45520735e+00 -5.94669591e-02 1.31799490e+00
-1.01690213e+01 -2.68837274e+00 -7.44320509e+00 -2.68837274e+00 -3.51115084e+00 -1.89904304e+00 -7.44320509e+00 -1.89904304e+00 -4.12827765e+01
-5.47420820e+00 -5.76141997e+00 -9.11856771e+00 -5.76141997e+00 -9.05008888e+00 -2.35147556e+00 -9.11856771e+00 -2.35147556e+00 -4.03542328e+01
-2.39734149e+01 2.40799730e-01 4.51218247e+00 2.40799730e-01 -3.28938680e+01 1.13568356e-02 4.51218247e+00 1.13568356e-02 -9.00380418e+01
-2.87272275e+01 -1.48281030e+00 4.01530081e+00 -1.48281030e+00 -3.30675116e+01 -2.42015330e-01 4.01530081e+00 -2.42015330e-01 -9.63645611e+01
1.33519766e+01 2.30332836e+00 -5.68166388e-01 2.30332836e+00 8.73913876e+00 -4.28910495e+00 -5.68166388e-01 -4.28910495e+00 -4.69678024e+00
3.62282829e+01 1.78082110e+00 -2.33135713e+00 1.78082110e+00 3.22132168e+01 2.82608867e-02 -2.33135713e+00 2.82608867e-02 4.22355143e+01
8.14398651e+01 4.27104664e+00 2.63583279e+01 4.27104664e+00 9.85301361e+01 7.21299219e+00 2.63583279e+01 7.21299219e+00 1.27445511e+02
2.01443616e+01 -2.52184799e+00 -9.39075613e-01 -2.52184799e+00 1.43278054e+01 -3.19600410e+00 -9.39075613e-01 -3.19600410e+00 1.54651587e+01
-2.49352521e+01 -4.54231188e-01 1.50249004e-01 -4.54231188e-01 -2.24570284e+01 5.88156208e+00 1.50249004e-01 5.88156208e+00 -7.87525983e+01
1.62697983e+00 1.00848476e-01 -1.72960188e+00 1.00848476e-01 -1.61847432e-01 2.99863264e+00 -1.72960188e+00 2.99863264e+00 -2.82460759e+01
-1.05434589e+02 -1.19983926e+01 1.14086318e+01 -1.19983926e+01 -1.55921593e+02 -1.33411205e+01 1.14086318e+01 -1.33411205e+01 -2.99393791e+02
-3.31858931e+01 3.23404396e-01 -1.81619649e+00 3.23404396e-01 -2.83960904e+01 4.89458772e+00 -1.81619649e+00 4.89458772e+00 -9.56397877e+01
-1.32053109e+01 -5.59970789e-01 3.89452320e+00 -5.59970789e-01 -1.02253566e+01 -1.96938600e-01 3.89452320e+00 -1.96938600e-01 -5.51341805e+01
1.94181796e+01 -2.39166602e-01 2.18394511e+00 -2.39166602e-01 1.77901310e+01 3.60709682e-01 2.18394511e+00 3.60709682e-01 1.01924639e+01
9.59276462e+00 4.66372997e-01 4.87545997e-01 4.66372997e-01 8.47171640e+00 -7.41883215e-01 4.87545997e-01 -7.41883215e-01 -1.03374653e+01
-3.18186457e+01 7.94166684e-01 -5.43069839e-01 7.94166684e-01 -4.01100132e+01 -3.78664219e+00 -5.43069839e-01 -3.78664219e+00 -1.05812295e+02
-1.16011627e+01 -1.46540253e+00 -3.20741117e+00 -1.46540253e+00 -2.15432594e+01 6.76374656e+00 -3.20741117e+00 6.76374656e+00 -6.11901448e+01
1.00225892e+01 -1.24096480e+00 -4.79461811e-01 -1.24096480e+00 -8.22847390e+00 6.33514148e+00 -4.79461811e-01 6.33514148e+00 -3.84386690e+01
1.27925315e+01 -1.89196314e+00 2.11713171e+00 -1.89196314e+00 2.09903872e+01 -3.70777193e+00 2.11713171e+00 -3.70777193e+00 8.16155589e+00
9.15509338e+01 -4.08366966e+00 8.39001894e-01 -4.08366966e+00 6.42563248e+01 2.20831776e+01 8.39001894e-01 2.20831776e+01 8.86775131e+01
4.25546341e+01 2.73186302e+00 -2.66681135e-01 2.73186302e+00 3.83300934e+01 6.14861250e+00 -2.66681135e-01 6.14861250e+00 5.62445297e+01
8.97942209e+00 -2.55348803e+00 -2.19767392e+00 -2.55348803e+00 9.88356656e+00 7.87550852e-01 -2.19767392e+00 7.87550852e-01 1.00513066e+01
4.14750028e+00 -4.93661650e+00 -1.84917369e+00 -4.93661650e+00 1.40708703e+01 -3.78423865e+00 -1.84917369e+00 -3.78423865e+00 6.98813852e+00
-1.15766144e+00 -9.53445077e-01 1.52171743e+00 -9.53445077e-01 1.17279506e+00 -1.08542478e+00 1.52171743e+00 -1.08542478e+00 -4.87446934e-01
-9.36345935e-01 1.47160366e-01 1.17194556e-01 1.47160366e-01 -1.06021971e-01 7.97368228e-01 1.17194556e-01 7.97368228e-01 5.69829524e-01
9.25364971e-01 -6.02677047e-01 3.43409061e-01 -6.02677047e-01 -4.46161836e-01 -1.43984079e+00 3.43409061e-01 -1.43984079e+00 -9.51886594e-01
4.01002765e-01 -1.70390809e+00 -1.27870870e+00 -1.70390809e+00 5.29782057e-01 1.30807614e+00 -1.27870870e+00 1.30807614e+00 -1.40344775e+00
7.08172628e+00 2.55327461e+00 1.59625733e+00 2.55327461e+00 -2.98498645e+00 9.74298203e-01 1.59625733e+00 9.74298203e-01 -7.06180951e-01
1.19156983e+00 -4.32939053e-01 -2.20305522e-01 -4.32939053e-01 -5.13471393e+00 9.12796319e-01 -2.20305522e-01 9.12796319e-01 -8.34290688e-01
-3.58532023e+00 9.25254792e-01 3.17349881e-02 9.25254792e-01 8.67888868e-01 -1.51978517e+00 3.17349881e-02 -1.51978517e+00 4.91250917e-01
-5.19624881e+00 -2.39272738e+00 -3.60672365e-01 -2.39272738e+00 2.40772430e+00 -6.70542081e-01 -3.60672365e-01 -6.70542081e-01 3.38641551e+00
2.08789492e+00 -3.35817710e-02 3.32731754e-03 -3.35817710e-02 -1.08973336e+00 2.81833857e-03 3.32731754e-03 2.81833857e-03 -2.87465687e+01
-4.94243741e-01 2.55988531e-01 -1.25966449e-02 2.55988531e-01 -2.22662163e+00 2.79890269e-01 -1.25966449e-02 2.79890269e-01 -3.28894444e+01
1.43735790e+00 9.11302336e-01 2.14139156e-01 9.11302336e-01 -7.03595161e-01 3.59802136e-01 2.14139156e-01 3.59802136e-01 -2.90720060e+01
1.02708960e+00 3.66924688e-01 1.34682525e-01 3.66924688e-01 -2.62826443e+00 -7.27061462e-03 1.34682525e-01 -7.27061462e-03 -3.15181665e+01
-8.46405733e+00 5.89465827e-01 -8.75250110e-03 5.89465827e-01 -6.31540096e+00 1.06041172e+00 -8.75250110e-03 1.06041172e+00 -4.58429489e+01
-6.50196174e+00 2.00076662e+00 2.47859053e-01 2.00076662e+00 -5.37937064e+00 6.51948880e-01 2.47859053e-01 6.51948880e-01 -4.25900686e+01
-1.16642750e+01 1.29120928e+00 3.02643417e-02 1.29120928e+00 -7.53104424e+00 5.83451599e-01 3.02643417e-02 5.83451599e-01 -5.05257883e+01
-2.21443758e+01 1.68066698e+00 1.16296157e+00 1.68066698e+00 -1.33037269e+01 1.95394281e+00 1.16296157e+00 1.95394281e+00 -6.72128272e+01