<VTKFile type="UnstructuredGrid" version="0.1" byte_order="LittleEndian">
<UnstructuredGrid>
<Piece NumberOfPoints="191" NumberOfCells="79">
<Points>
<DataArray type="Float64" NumberOfComponents="3" format="ascii">
 1.03180993e+00  5.18729973e+00  1.91049933e+00
 2.05367923e+00  5.17884207e+00  1.92858303e+00
 2.05439687e+00  6.22517633e+00  1.89519334e+00
 1.02718139e+00  6.21945524e+00  1.88631272e+00
 1.02588272e+00  5.21598148e+00  2.86355615e+00
 2.05822611e+00  5.21392727e+00  2.86966896e+00
 2.04864907e+00  6.27374744e+00  2.82799029e+00
 1.02823234e+00  6.24740696e+00  2.83599544e+00
 3.09273553e+00  5.16562843e+00  1.94365895e+00
 3.10063386e+00  6.21679068e+00  1.89685822e+00
 3.09218907e+00  5.20621586e+00  2.85231614e+00
 3.13313031e+00  6.25827980e+00  2.78149033e+00
 5.09583616e+00  5.16036272e+00  2.00003099e+00
 6.09583521e+00  5.16293716e+00  2.00002718e+00
 6.09325743e+00  6.16294432e+00  1.99998486e+00
 5.09323215e+00  6.16037321e+00  1.99996853e+00
 5.09582853e+00  5.16041946e+00  3.00001860e+00
 6.09581900e+00  5.16300344e+00  3.00003481e+00
 6.09323645e+00  6.16299200e+00  2.99997425e+00
 5.09325409e+00  6.16040659e+00  2.99997926e+00
 0.00000000e+00  0.00000000e+00  2.78646326e+00
 1.04035997e+00  0.00000000e+00  2.78453374e+00
 1.04225898e+00  1.04393661e+00  2.79033709e+00
 0.00000000e+00  1.04244173e+00  2.79503345e+00
 0.00000000e+00  0.00000000e+00  3.71345520e+00
 1.05485320e+00  0.00000000e+00  3.71366119e+00
 1.05620730e+00  1.04352558e+00  3.71583891e+00
 0.00000000e+00  1.04083657e+00  3.72282481e+00
 2.08928967e+00  0.00000000e+00  2.77208447e+00
 2.07939959e+00  1.03680182e+00  2.78048253e+00
 2.10626245e+00  0.00000000e+00  3.70520377e+00
 2.10866690e+00  1.04572463e+00  3.70478010e+00
 3.13293052e+00  0.00000000e+00  2.75839019e+00
 3.13377619e+00  1.03222132e+00  2.76149225e+00
 3.15812802e+00  0.00000000e+00  3.69070816e+00
 3.15316224e+00  1.04012585e+00  3.69151425e+00
 4.18548775e+00  0.00000000e+00  2.74589872e+00
 4.18791628e+00  1.03384101e+00  2.74151540e+00
 4.20317602e+00  0.00000000e+00  3.67958164e+00
 4.20102215e+00  1.03309524e+00  3.67338419e+00
 5.23996782e+00  0.00000000e+00  2.73032188e+00
 5.24098825e+00  1.03639066e+00  2.73284554e+00
 5.24615765e+00  0.00000000e+00  3.67186117e+00
 5.24579239e+00  1.03155732e+00  3.66081309e+00
 6.28984022e+00  0.00000000e+00  2.72442389e+00
 6.29020834e+00  1.03608906e+00  2.72704411e+00
 6.28036737e+00  0.00000000e+00  3.66900158e+00
 6.29191065e+00  1.03078985e+00  3.66069102e+00
 1.02914476e+00  2.08260965e+00  2.80945134e+00
 0.00000000e+00  2.09446549e+00  2.81238031e+00
 1.05589914e+00  2.08852601e+00  3.73727441e+00
 0.00000000e+00  2.08869815e+00  3.73906732e+00
 2.07770824e+00  2.08332253e+00  2.78881764e+00
 2.11621141e+00  2.09350896e+00  3.71146584e+00
 3.12497187e+00  2.08934569e+00  2.75132275e+00
 3.16068673e+00  2.08778119e+00  3.66144443e+00
 4.18513012e+00  2.09923649e+00  2.74235559e+00
 4.19337368e+00  2.07630444e+00  3.64601326e+00
 5.23897839e+00  2.09232378e+00  2.74317956e+00
 5.24314070e+00  2.08579159e+00  3.64774370e+00
 6.28519869e+00  2.09555507e+00  2.73851585e+00
 6.28793859e+00  2.08638096e+00  3.64699388e+00
 1.02458620e+00  3.14225435e+00  2.84738255e+00
 0.00000000e+00  3.13938999e+00  2.84334946e+00
 1.05199873e+00  3.14000726e+00  3.76703024e+00
 0.00000000e+00  3.13834286e+00  3.77801776e+00
 2.06952429e+00  3.12474251e+00  2.81904340e+00
 2.13036752e+00  3.14459920e+00  3.70152640e+00
 3.05644965e+00  3.10765553e+00  2.56666541e+00
 3.18557191e+00  3.12726617e+00  3.60666251e+00
 1.02444565e+00  4.17512512e+00  2.87281084e+00
 0.00000000e+00  4.18169832e+00  2.86823535e+00
 1.04041016e+00  4.19305468e+00  3.82115030e+00
 0.00000000e+00  4.19814682e+00  3.80577159e+00
 0.00000000e+00  5.21062279e+00  2.86055827e+00
 1.03735101e+00  5.25070000e+00  3.80655766e+00
 0.00000000e+00  5.23523474e+00  3.79568577e+00
 2.06009603e+00  4.17572641e+00  2.90166306e+00
 2.09436059e+00  4.20351934e+00  3.79701352e+00
 2.09158325e+00  5.23582268e+00  3.80600142e+00
 0.00000000e+00  6.24997616e+00  2.82593322e+00
 1.05305040e+00  6.29764748e+00  3.74684620e+00
 0.00000000e+00  6.31031847e+00  3.76209903e+00
 2.09213829e+00  6.31491327e+00  3.74559307e+00
 3.12407255e+00  5.21710777e+00  3.69478369e+00
 3.19327927e+00  6.25042152e+00  3.69970536e+00
 0.00000000e+00  0.00000000e+00  4.63288069e+00
 1.06854272e+00  0.00000000e+00  4.63017035e+00
 1.07186854e+00  1.04502380e+00  4.63349247e+00
 0.00000000e+00  1.04183149e+00  4.63591146e+00
 2.12548780e+00  0.00000000e+00  4.62609768e+00
 2.13398504e+00  1.05253935e+00  4.62521267e+00
 3.17307854e+00  0.00000000e+00  4.61924934e+00
 3.17849612e+00  1.05482090e+00  4.61741734e+00
 4.21552086e+00  0.00000000e+00  4.61138201e+00
 4.21110010e+00  1.04947662e+00  4.61021948e+00
 5.24986935e+00  0.00000000e+00  4.60798788e+00
 5.24469137e+00  1.04393888e+00  4.60369062e+00
 6.27764273e+00  0.00000000e+00  4.60650730e+00
 6.27893305e+00  1.04739773e+00  4.60583115e+00
 1.08304405e+00  2.09673333e+00  4.63970184e+00
 0.00000000e+00  2.08770776e+00  4.64743519e+00
 2.15008545e+00  2.10667682e+00  4.62360096e+00
 3.19299674e+00  2.10624647e+00  4.60002232e+00
 4.21742201e+00  2.09488392e+00  4.58112907e+00
 5.23478460e+00  2.08130097e+00  4.57017136e+00
 6.25606966e+00  2.08518815e+00  4.57047081e+00
 1.08502448e+00  3.13341808e+00  4.67446709e+00
 0.00000000e+00  3.14961195e+00  4.68996477e+00
 2.16870499e+00  3.13866282e+00  4.61676693e+00
 3.22302961e+00  3.13172793e+00  4.55917835e+00
 4.20833731e+00  3.05859828e+00  3.50481653e+00
 4.23672628e+00  3.11708832e+00  4.54211521e+00
 1.08964300e+00  4.18777418e+00  4.74170065e+00
 0.00000000e+00  4.17558336e+00  4.70757103e+00
 2.18108273e+00  4.17626667e+00  4.64680243e+00
 1.07434678e+00  5.28033686e+00  4.68271208e+00
 0.00000000e+00  5.28630733e+00  4.68321276e+00
 1.08926678e+00  6.36938858e+00  4.65337086e+00
 0.00000000e+00  6.36526537e+00  4.66499615e+00
 2.13557267e+00  5.25626564e+00  4.68309402e+00
 2.20419168e+00  6.32125854e+00  4.65834284e+00
 3.20684719e+00  5.18493128e+00  4.58182096e+00
 3.29139066e+00  6.20917988e+00  4.60705137e+00
 4.06032467e+00  5.16042042e+00  3.44260001e+00
 4.17788315e+00  6.15892839e+00  3.51310730e+00
 4.26603127e+00  5.11725664e+00  4.54078531e+00
 4.28214979e+00  6.11861610e+00  4.54114914e+00
 5.26641035e+00  5.10265779e+00  3.54091549e+00
 6.26628637e+00  5.08784819e+00  3.54090214e+00
 6.28109980e+00  6.08774424e+00  3.54094243e+00
 5.28117275e+00  6.10258722e+00  3.54100609e+00
 5.26637173e+00  5.10263824e+00  4.54091358e+00
 6.26633501e+00  5.08781528e+00  4.54092360e+00
 6.28109694e+00  6.08771706e+00  4.54093456e+00
 5.28129530e+00  6.10243511e+00  4.54100132e+00
 0.00000000e+00  0.00000000e+00  5.54094887e+00
 1.07299185e+00  0.00000000e+00  5.54094887e+00
 1.07927489e+00  1.04886711e+00  5.54094887e+00
 0.00000000e+00  1.04356408e+00  5.54094887e+00
 2.13519192e+00  0.00000000e+00  5.54094887e+00
 2.14098954e+00  1.05711699e+00  5.54094887e+00
 3.17957354e+00  0.00000000e+00  5.54094887e+00
 3.18839097e+00  1.06136048e+00  5.54094887e+00
 4.21758890e+00  0.00000000e+00  5.54094887e+00
 4.21917057e+00  1.06089592e+00  5.54094887e+00
 5.24997282e+00  0.00000000e+00  5.54094887e+00
 5.24602461e+00  1.05624521e+00  5.54094887e+00
 6.28350496e+00  0.00000000e+00  5.54094887e+00
 6.26523924e+00  1.06376278e+00  5.54094887e+00
 1.09647083e+00  2.08807945e+00  5.54094887e+00
 0.00000000e+00  2.08325839e+00  5.54094887e+00
 2.16862726e+00  2.10732198e+00  5.54094887e+00
 3.20510459e+00  2.11527658e+00  5.54094887e+00
 4.22709513e+00  2.10658908e+00  5.54094887e+00
 5.23302794e+00  2.09430003e+00  5.54094887e+00
 6.24586058e+00  2.09327364e+00  5.54094887e+00
 1.10583651e+00  3.16983700e+00  5.54094887e+00
 0.00000000e+00  3.17587829e+00  5.54094887e+00
 2.19649315e+00  3.14821911e+00  5.54094887e+00
 3.23593140e+00  3.13918853e+00  5.54094887e+00
 4.23736000e+00  3.11795425e+00  5.54094887e+00
 5.23718643e+00  3.10188937e+00  4.54028940e+00
 5.23769665e+00  3.10263658e+00  5.54094887e+00
 6.23907042e+00  3.08980250e+00  4.53974724e+00
 6.23926973e+00  3.09147525e+00  5.54094887e+00
 3.25199127e+00  4.13322926e+00  4.52857304e+00
 3.25836468e+00  4.14178085e+00  5.54094887e+00
 2.24978924e+00  4.16865635e+00  5.54094887e+00
 4.25185156e+00  4.11693907e+00  4.54119396e+00
 4.25201797e+00  4.11717796e+00  5.54094887e+00
 5.25165987e+00  4.10279512e+00  4.54088736e+00
 5.25174713e+00  4.10269499e+00  5.54094887e+00
 6.25144482e+00  4.08819485e+00  4.54097557e+00
 6.25135326e+00  4.08804512e+00  5.54094887e+00
 0.00000000e+00  4.15005159e+00  5.54094887e+00
 1.11918092e+00  4.17348480e+00  5.54094887e+00
 1.10247326e+00  5.30505657e+00  5.54094887e+00
 0.00000000e+00  5.32074022e+00  5.54094887e+00
 5.26632118e+00  5.10263205e+00  5.54094887e+00
 4.26644993e+00  5.11732197e+00  5.54094887e+00
 6.26636648e+00  5.08783722e+00  5.54094887e+00
 1.10974014e+00  6.38730574e+00  5.54094887e+00
 0.00000000e+00  6.38232422e+00  5.54094887e+00
 2.17000222e+00  5.26215172e+00  5.54094887e+00
 2.24645400e+00  6.31765747e+00  5.54094887e+00
 3.22280884e+00  5.16742468e+00  5.54094887e+00
 3.30838537e+00  6.19643688e+00  5.54094887e+00
 4.28254747e+00  6.11781120e+00  5.54094887e+00
 5.28131390e+00  6.10237408e+00  5.54094887e+00
 6.28109169e+00  6.08771420e+00  5.54094887e+00
</DataArray>
</Points>
<PointData Tensors="Stress_Components,Plastic_strain_components" Vevtors="Spatial_displacement,Reaction_force" Scalars="Equivalent_plastic_strain,Stress_Mises,Stress_Max_Principal,Stress_Mid_Principal,Stress_Min_Principal,Stress_Pressure,Stress_Tresca,Stress_Third_Invariant,Plastic_strain_Max_Principal,Plastic_strain_Min_Principal">
<DataArray type="Float32" Name="Stress_Components" NumberOfComponents="9" format="ascii">
1.46320321e+01 -1.75957542e-01 3.02554481e-01 -1.75957542e-01 1.19121546e+01 1.82310902e-01 3.02554481e-01 1.82310902e-01 -1.00822523e+00
2.34381205e+00 -2.68716180e+00 7.83675984e-01 -2.68716180e+00 1.88486075e+00 2.35675993e+00 7.83675984e-01 2.35675993e+00 -2.32921284e+01
-6.83558464e+00 -1.13932341e-02 1.21848148e+00 -1.13932341e-02 -7.40539074e-01 -2.19924816e+00 1.21848148e+00 -2.19924816e+00 -3.76948872e+01
-1.05864629e+00 -6.91761844e-01 -2.28199586e-01 -6.91761844e-01 -8.53462473e-01 -1.13557048e-01 -2.28199586e-01 -1.13557048e-01 -3.21768765e+01
1.62569060e+01 9.99819273e-02 1.06666231e+00 9.99819273e-02 1.72028951e+01 -3.25411942e-01 1.06666231e+00 -3.25411942e-01 6.18181619e+00
2.07148557e+01 -1.94727947e+00 2.74911053e+00 -1.94727947e+00 2.33048316e+01 9.41262669e-01 2.74911053e+00 9.41262669e-01 1.43252478e+01
-1.49381734e+01 -2.25149006e-01 4.70778137e-01 -2.25149006e-01 -2.80792856e+00 -3.60558331e-02 4.70778137e-01 -3.60558331e-02 -4.72717032e+01
9.90647124e+00 4.35132906e-02 4.51720841e-01 4.35132906e-02 9.16456603e+00 1.00270457e+00 4.51720841e-01 1.00270457e+00 -9.55970430e+00
-1.75216930e+01 -1.30930264e+00 -5.94818510e-01 -1.30930264e+00 -1.60988901e+01 5.80385628e+00 -5.94818510e-01 5.80385628e+00 -6.77903662e+01
-8.01674156e+01 -2.85583055e+00 -5.05067992e+00 -2.85583055e+00 -7.53003445e+01 4.92573178e+00 -5.05067992e+00 4.92573178e+00 -1.98405312e+02
-6.82893798e+01 7.60547757e+00 -2.55011536e+01 7.60547757e+00 -7.13579468e+01 -2.98661019e+00 -2.55011536e+01 -2.98661019e+00 -1.65375045e+02
-4.88678617e+01 6.68233871e-01 -5.63356829e+00 6.68233871e-01 -7.08788109e+01 -1.24553180e+00 -5.63356829e+00 -1.24553180e+00 -1.57479633e+02
-2.12323591e-01 -6.13217771e-01 -2.46843506e-01 -6.13217771e-01 2.61357650e-01 2.28691794e-01 -2.46843506e-01 2.28691794e-01 -4.42311212e-01
-4.11189921e-01 -6.74460493e-02 -1.04488611e-01 -6.74460493e-02 -8.43358263e-02 -2.36243326e-01 -1.04488611e-01 -2.36243326e-01 1.02293946e-01
6.72475606e-01 -1.40812024e-01 -8.02756026e-02 -1.40812024e-01 -9.22827944e-02 5.81338372e-01 -8.02756026e-02 5.81338372e-01 -9.73421484e-01
3.99410620e-01 -6.86753422e-01 -1.69828832e-02 -6.86753422e-01 -2.18531720e-01 -5.14439911e-01 -1.69828832e-02 -5.14439911e-01 -5.74242875e-01
2.30680883e-01 2.05009639e-01 3.69439334e-01 2.05009639e-01 8.26310515e-02 1.80487201e-01 3.69439334e-01 1.80487201e-01 -4.28305864e-02
-6.79531991e-02 3.07533070e-02 1.22813314e-01 3.07533070e-02 -1.71339780e-01 6.96390774e-03 1.22813314e-01 6.96390774e-03 5.09866238e-01
-4.27643470e-02 5.30577004e-02 -2.68473983e-01 5.30577004e-02 2.02319875e-01 -5.48684776e-01 -2.68473983e-01 -5.48684776e-01 1.10961825e-01
-3.25120658e-01 2.27334395e-01 -1.19382478e-01 2.27334395e-01 -1.24730252e-01 3.44654173e-01 -1.19382478e-01 3.44654173e-01 7.20261693e-01
5.13805389e-01 3.08478232e-02 3.17807488e-01 3.08478232e-02 1.24499583e+00 -6.79317545e-02 3.17807488e-01 -6.79317545e-02 -2.81266766e+01
1.09401001e+00 4.32047889e-01 1.66124966e-01 4.32047889e-01 1.05513513e+00 3.38123597e-01 1.66124966e-01 3.38123597e-01 -2.76425236e+01
5.01951489e+00 -3.58501051e-01 2.75289965e-01 -3.58501051e-01 5.64249648e+00 4.84950088e-01 2.75289965e-01 4.84950088e-01 -1.84118758e+01
9.19807091e-01 1.99661624e-01 3.64950076e-01 1.99661624e-01 2.41362643e+00 -2.65534386e-01 3.64950076e-01 -2.65534386e-01 -2.63672919e+01
5.89347577e+00 -2.80202972e-02 7.18349859e-01 -2.80202972e-02 4.51824570e+00 1.90804895e-01 7.18349859e-01 1.90804895e-01 -1.87058907e+01
4.65546548e-01 2.19367377e-01 -8.11417624e-02 2.19367377e-01 -2.35624671e-01 1.13263237e+00 -8.11417624e-02 1.13263237e+00 -2.96580973e+01
3.55276532e+00 3.74244707e-01 4.79461769e-01 3.74244707e-01 2.71213880e+00 4.75017119e-01 4.79461769e-01 4.75017119e-01 -2.31895791e+01
8.15927297e-01 3.98362357e-01 8.01970355e-01 3.98362357e-01 -9.15936530e-01 -6.92733157e-01 8.01970355e-01 -6.92733157e-01 -3.00148325e+01
5.88713861e+00 -8.73107940e-01 1.97099092e-01 -8.73107940e-01 4.88112605e+00 2.86449818e-02 1.97099092e-01 2.86449818e-02 -1.83210496e+01
5.91118785e+00 -6.32234036e-01 9.19028265e-01 -6.32234036e-01 5.70639803e+00 9.29938741e-01 9.19028265e-01 9.29938741e-01 -1.71626800e+01
5.94436646e-01 1.20298700e-01 2.89947940e-02 1.20298700e-01 4.16933060e-01 4.63279888e-01 2.89947940e-02 4.63279888e-01 -2.89480395e+01
-1.37770951e+00 9.17655081e-02 1.15449604e+00 9.17655081e-02 -3.11638772e-01 1.88889279e+00 1.15449604e+00 1.88889279e+00 -3.15413585e+01
6.93718179e+00 1.23226980e-01 2.30361436e-01 1.23226980e-01 5.55674362e+00 6.08149633e-01 2.30361436e-01 6.08149633e-01 -1.63778889e+01
1.07634673e+01 -1.20686418e-01 7.94871859e-02 -1.20686418e-01 9.00356618e+00 1.23680024e-02 7.94871859e-02 1.23680024e-02 -8.57732427e+00
3.40531084e+00 -6.89459160e-01 2.88739119e-01 -6.89459160e-01 2.24147198e+00 9.25774459e-01 2.88739119e-01 9.25774459e-01 -2.38049651e+01
2.72059968e+00 -6.88305908e-01 4.25393922e-01 -6.88305908e-01 2.63302991e+00 7.91290211e-01 4.25393922e-01 7.91290211e-01 -2.40823379e+01
9.25062957e+00 1.79172758e-01 -9.87665366e-02 1.79172758e-01 6.99125040e+00 3.88629448e-01 -9.87665366e-02 3.88629448e-01 -1.22801399e+01
4.24445695e+00 1.16425812e-01 -5.19916761e-01 1.16425812e-01 1.93694735e+00 6.40339619e-02 -5.19916761e-01 6.40339619e-02 -2.31951092e+01
6.17641664e+00 -3.44157808e-01 -3.14861640e-01 -3.44157808e-01 4.19126022e+00 5.93301602e-01 -3.14861640e-01 5.93301602e-01 -1.87288171e+01
1.36781188e+01 -5.04910618e-01 2.59204436e-01 -5.04910618e-01 1.22987721e+01 -2.78215564e-01 2.59204436e-01 -2.78215564e-01 -1.93141818e+00
1.24951185e+01 -1.52741398e-01 3.67912557e-02 -1.52741398e-01 1.05875418e+01 -6.88336901e-02 3.67912557e-02 -6.88336901e-02 -4.92462867e+00
8.39572728e+00 8.26199353e-03 -3.37433110e-01 8.26199353e-03 5.85801041e+00 4.01220489e-02 -3.37433110e-01 4.01220489e-02 -1.44657512e+01
1.46046510e+01 -8.68222294e-02 -2.25776153e-01 -8.68222294e-02 1.44183441e+01 -3.42553353e-01 -2.25776153e-01 -3.42553353e-01 1.35564375e+00
7.42875123e+00 -2.27841196e-01 -3.17060880e-01 -2.27841196e-01 5.93140768e+00 -4.06734726e-01 -3.17060880e-01 -4.06734726e-01 -1.54628186e+01
1.53708692e+01 -1.40344258e-01 -1.24380998e-02 -1.40344258e-01 1.44110022e+01 -3.87838304e-01 -1.24380998e-02 -3.87838304e-01 2.36477947e+00
1.69669975e+01 6.94720605e-02 -4.69178563e-01 6.94720605e-02 1.50040238e+01 -3.04443501e-02 -4.69178563e-01 -3.04443501e-02 4.59096718e+00
1.90113177e+01 5.44430293e-01 -3.10058147e-03 5.44430293e-01 1.95902679e+01 -7.52249010e-01 -3.10058147e-03 -7.52249010e-01 1.18182478e+01
1.23300525e+01 5.31910926e-01 2.51143793e-01 5.31910926e-01 1.09844429e+01 -9.16459161e-01 2.51143793e-01 -9.16459161e-01 -4.58066249e+00
2.58992207e+00 -9.30471212e-01 1.62689331e+00 -9.30471212e-01 5.22456282e+00 1.05358582e-01 1.62689331e+00 1.05358582e-01 -2.08636665e+01
2.60360026e+00 -1.13517045e+00 1.23506553e+00 -1.13517045e+00 6.34093243e+00 -2.87400514e-01 1.23506553e+00 -2.87400514e-01 -1.98785412e+01
-5.00410876e+00 4.24841103e-01 2.76195716e+00 4.24841103e-01 -6.44625509e+00 2.12244869e+00 2.76195716e+00 2.12244869e+00 -4.17328947e+01
9.19042587e-01 -9.73158488e-02 7.96410181e-01 -9.73158488e-02 1.05476356e+00 -1.05404153e-01 7.96410181e-01 -1.05404153e-01 -2.79014993e+01
1.34571472e+01 2.15542482e+00 3.82947095e+00 2.15542482e+00 1.18666047e+01 3.03534083e+00 3.82947095e+00 3.03534083e+00 -8.31671470e+00
-5.43615292e+00 9.71480619e-01 2.48170020e-01 9.71480619e-01 -5.27838883e+00 1.56013295e-01 2.48170020e-01 1.56013295e-01 -4.03582118e+01
-7.18686844e+01 -5.42458353e+00 -1.53306746e+01 -5.42458353e+00 -7.24153145e+01 -1.93772697e+00 -1.53306746e+01 -1.93772697e+00 -1.70051555e+02
1.06989891e+01 1.31197983e+00 -2.08394391e-01 1.31197983e+00 1.42121968e+01 1.38998329e+00 -2.08394391e-01 1.38998329e+00 -6.89121968e+00
-4.76420135e+01 -1.12130404e+00 -4.15218174e+00 -1.12130404e+00 -4.32552400e+01 1.46106246e+00 -4.15218174e+00 1.46106246e+00 -1.27787704e+02
-3.27357050e+01 -1.57947780e+00 -1.59095493e+01 -1.57947780e+00 -4.01984827e+01 -4.57294837e-01 -1.59095493e+01 -4.57294837e-01 -9.07872269e+01
-3.12386093e+01 -1.30762258e+00 -8.93281847e-02 -1.30762258e+00 -2.74970989e+01 1.64141705e+00 -8.93281847e-02 1.64141705e+00 -9.33698311e+01
-4.18114100e+01 -1.64143942e-01 -4.52324808e+00 -1.64143942e-01 -3.65632415e+01 -1.50044461e+00 -4.52324808e+00 -1.50044461e+00 -1.14207314e+02
-2.33867464e+01 -1.81901062e+00 -6.95518464e-01 -1.81901062e+00 -1.57188663e+01 3.09670210e-01 -6.95518464e-01 3.09670210e-01 -7.16982765e+01
-4.15635672e+01 -3.53255951e+00 -5.05327654e+00 -3.53255951e+00 -3.15278244e+01 -3.84913995e+00 -5.05327654e+00 -3.84913995e+00 -1.06751778e+02
5.08785554e-01 -3.25867108e-02 3.34655355e+00 -3.25867108e-02 3.72781421e+00 7.05426697e-01 3.34655355e+00 7.05426697e-01 -2.43250299e+01
1.19905841e+01 1.97060538e-01 1.31895864e+00 1.97060538e-01 1.35736768e+01 -4.45729168e-01 1.31895864e+00 -4.45729168e-01 -2.12497640e+00
-8.12174674e+00 -4.08706164e-01 3.97120731e+00 -4.08706164e-01 -8.65264177e+00 1.56507335e+00 3.97120731e+00 1.56507335e+00 -4.69303128e+01
5.88060349e+00 7.58352412e-02 1.73107463e+00 7.58352412e-02 7.47441244e+00 -3.85636464e-03 1.73107463e+00 -3.85636464e-03 -1.54420002e+01
-9.90979204e+01 -1.08913707e+01 1.04338970e+01 -1.08913707e+01 -9.00949020e+01 -1.47052749e+01 1.04338970e+01 -1.47052749e+01 -2.11021942e+02
-2.06274940e+01 2.45716963e+00 2.06486839e+00 2.45716963e+00 -2.73954021e+01 -3.07361252e+00 2.06486839e+00 -3.07361252e+00 -8.25658170e+01
8.34553833e+01 5.47971249e+00 6.29195690e+00 5.47971249e+00 8.09452972e+01 1.29394455e+01 6.29195690e+00 1.29394455e+01 1.38295868e+02
6.26392237e+00 -4.26958090e+00 -7.90991859e+00 -4.26958090e+00 4.99764633e+00 -5.89462742e+00 -7.90991859e+00 -5.89462742e+00 -7.69880168e+00
2.17868986e+01 -7.98990024e-02 -2.00480209e+00 -7.98990024e-02 2.22638827e+01 4.10511370e-01 -2.00480209e+00 4.10511370e-01 1.69228965e+01
1.23930553e+01 -4.21319157e-01 1.46486917e+00 -4.21319157e-01 1.31855316e+01 7.42990315e-01 1.46486917e+00 7.42990315e-01 -1.82538462e+00
2.08817622e+01 -5.88703973e-01 4.40083444e-03 -5.88703973e-01 2.30005954e+01 1.25259261e+00 4.40083444e-03 1.25259261e+00 1.84099204e+01
9.51273048e+00 -8.30270770e-01 2.29482608e+00 -8.30270770e-01 1.03108606e+01 1.45552351e+00 2.29482608e+00 1.45552351e+00 -7.92370582e+00
1.39321668e+01 1.68043263e-02 1.16023427e-01 1.68043263e-02 1.42988156e+01 3.00208896e-01 1.16023427e-01 3.00208896e-01 6.11063242e-01
1.72152627e+01 5.86556166e-01 8.03976940e-01 5.86556166e-01 1.81283085e+01 6.82831492e-01 8.03976940e-01 6.82831492e-01 8.56493609e+00
4.24079621e+00 1.80126192e+00 1.60481408e-01 1.80126192e+00 6.84085655e+00 1.14475165e+00 1.60481408e-01 1.14475165e+00 -1.77361802e+01
-4.86524881e+01 1.27687021e+00 5.97351837e+00 1.27687021e+00 -4.52709386e+01 1.72186732e+01 5.97351837e+00 1.72186732e+01 -1.15362742e+02
-9.67950668e+01 -3.36011048e+00 1.40483675e+01 -3.36011048e+00 -9.56051025e+01 1.03333073e+01 1.40483675e+01 1.03333073e+01 -2.34555687e+02
-6.34387374e+00 -3.11983400e+00 -2.89269185e+00 -3.11983400e+00 -2.75230217e-01 4.54427900e+00 -2.89269185e+00 4.54427900e+00 -3.53857704e+01
1.37689781e+00 -4.25022110e-01 -2.63025120e-01 -4.25022110e-01 3.73999023e+00 8.90917026e-01 -2.63025120e-01 8.90917026e-01 -2.44615555e+01
3.87791586e+00 1.26139925e+00 -1.21569560e+00 1.26139925e+00 2.46031237e+00 9.11012322e-01 -1.21569560e+00 9.11012322e-01 -2.32189293e+01
3.88657379e+00 -1.81067576e+00 2.60803914e+00 -1.81067576e+00 7.91725731e+00 -1.28214782e+00 2.60803914e+00 -1.28214782e+00 -1.68308716e+01
-2.05818338e+01 -3.45324156e+00 -4.06445614e+00 -3.45324156e+00 -1.54559469e+01 4.23495001e+00 -4.06445614e+00 4.23495001e+00 -6.46568384e+01
-8.39458288e+01 1.04234909e+01 -3.01060875e-01 1.04234909e+01 -5.08706729e+01 -3.69232850e+01 -3.01060875e-01 -3.69232850e+01 -1.24249992e+02
-5.57917897e+00 -3.37377401e+00 -1.21072439e+00 -3.37377401e+00 -9.71667194e+00 -5.36311460e+00 -1.21072439e+00 -5.36311460e+00 -3.97025919e+01
4.47088045e+00 -3.13257799e-02 2.45588012e-01 -3.13257799e-02 1.41418588e+00 -7.13024922e-02 2.45588012e-01 -7.13024922e-02 -2.34623742e+01
6.22431040e-01 1.60722509e-01 1.76888620e-02 1.60722509e-01 -1.14369929e+00 7.49897693e-01 1.76888620e-02 7.49897693e-01 -3.04572041e+01
5.72207265e-01 7.89315674e-01 3.44137790e-01 7.89315674e-01 -1.64145559e+00 4.28305998e-01 3.44137790e-01 4.28305998e-01 -3.10161844e+01
5.75825512e-01 2.86682345e-01 4.91519880e-01 2.86682345e-01 -3.06562093e+00 -3.11218549e-01 4.91519880e-01 -3.11218549e-01 -3.24654124e+01
-4.90781701e+00 8.67018253e-01 -1.77879639e-01 8.67018253e-01 -3.55453438e+00 8.88215497e-01 -1.77879639e-01 8.88215497e-01 -3.90503168e+01
-5.95319876e+00 1.39968727e+00 5.20711097e-01 1.39968727e+00 -4.59820306e+00 1.47223203e+00 5.20711097e-01 1.47223203e+00 -4.10732541e+01
-6.23294300e+00 4.00433540e-01 4.53024581e-01 4.00433540e-01 -4.37710226e+00 4.39310674e-01 4.53024581e-01 4.39310674e-01 -4.14819193e+01
-1.16398077e+01 6.08353527e-01 5.65244555e-01 6.08353527e-01 -6.02509624e+00 1.75501953e+00 5.65244555e-01 1.75501953e+00 -4.84335660e+01
-4.19885236e+00 -1.15740241e+00 3.15561194e-01 -1.15740241e+00 -2.12356174e+00 5.23582261e-01 3.15561194e-01 5.23582261e-01 -3.67362825e+01
-2.60369658e+00 -6.94278193e-01 -3.60801063e-01 -6.94278193e-01 1.07348558e+00 -6.18503690e-02 -3.60801063e-01 -6.18503690e-02 -3.13878319e+01
2.94814824e+00 -6.13156818e-01 -1.46381203e-01 -6.13156818e-01 5.57401285e+00 -5.49838476e-01 -1.46381203e-01 -5.49838476e-01 -2.06359130e+01
6.19489771e+00 -1.21369504e+00 -4.59741302e-01 -1.21369504e+00 7.36258566e+00 -1.57535690e-01 -4.59741302e-01 -1.57535690e-01 -1.52520718e+01
-2.60129452e-01 4.04134452e-01 6.22269586e-01 4.04134452e-01 4.59693646e+00 -1.25497180e+00 6.22269586e-01 -1.25497180e+00 -2.48195007e+01
-2.86935812e+00 -1.24140857e+00 -1.91262215e-01 -1.24140857e+00 5.21621108e-01 -2.15955186e+00 -1.91262215e-01 -2.15955186e+00 -3.18212695e+01
-6.58556569e+00 1.51778790e+00 1.18073904e+00 1.51778790e+00 -1.09109077e+01 1.79501778e+00 1.18073904e+00 1.79501778e+00 -4.83874145e+01
-3.24944019e-01 8.59217167e-01 5.09540409e-01 8.59217167e-01 -4.36565065e+00 -1.80876447e-01 5.09540409e-01 -1.80876447e-01 -3.48148365e+01
-6.39848936e+00 2.59615417e+00 4.45802139e-01 2.59615417e+00 -6.86359107e+00 8.66032937e-01 4.45802139e-01 8.66032937e-01 -4.39263525e+01
6.21475947e+00 1.82180228e+00 -4.69741777e+00 1.82180228e+00 7.68422270e+00 -5.01549773e-01 -4.69741777e+00 -5.01549773e-01 -1.23672867e+01
1.06847561e+01 1.60520545e-02 -2.80854709e+00 1.60520545e-02 1.52354837e+01 -2.32137875e-01 -2.80854709e+00 -2.32137875e-01 -2.66710516e+00
-4.42869918e+00 -1.87694125e+00 -6.54683372e+00 -1.87694125e+00 4.60355441e-01 -1.84293389e+00 -6.54683372e+00 -1.84293389e+00 -3.18213895e+01
-2.55021477e+00 -4.65483236e+00 -8.31642294e+00 -4.65483236e+00 -6.54856396e+00 -2.70811284e+00 -8.31642294e+00 -2.70811284e+00 -3.55595004e+01
-2.09199037e+01 1.64073897e-01 4.87803459e+00 1.64073897e-01 -3.02303778e+01 -2.29232520e-01 4.87803459e+00 -2.29232520e-01 -8.35978939e+01
-2.87855070e+01 -1.71928783e+00 4.78924012e+00 -1.71928783e+00 -3.39151034e+01 -5.35880983e-01 4.78924012e+00 -5.35880983e-01 -9.70893091e+01
1.12122219e+01 2.04591238e+00 -2.39180632e-01 2.04591238e+00 5.69927073e+00 -3.91142130e+00 -2.39180632e-01 -3.91142130e+00 -1.02670757e+01
3.29129833e+01 2.08703078e+00 -2.74515955e+00 2.08703078e+00 3.11886864e+01 1.92857246e-01 -2.74515955e+00 1.92857246e-01 3.87382024e+01
5.90427284e+01 4.93629485e-01 1.60910854e+01 4.93629485e-01 6.54957504e+01 6.95286036e-01 1.60910854e+01 6.95286036e-01 9.55561752e+01
1.94131290e+01 -1.92030196e+00 -1.31882923e+00 -1.92030196e+00 1.51095985e+01 -3.42806968e+00 -1.31882923e+00 -3.42806968e+00 1.36165443e+01
-2.12518680e+01 -4.74029198e-01 4.02633548e-01 -4.74029198e-01 -1.98041650e+01 6.01413164e+00 4.02633548e-01 6.01413164e+00 -7.15319543e+01
-1.56965860e+00 1.55216581e-01 -1.78229346e+00 1.55216581e-01 -3.55837313e+00 3.26709197e+00 -1.78229346e+00 3.26709197e+00 -3.52816162e+01
-9.35362892e+01 -1.07415061e+01 9.80251670e+00 -1.07415061e+01 -1.40241524e+02 -1.33965039e+01 9.80251670e+00 -1.33965039e+01 -2.70816376e+02
-2.83939635e+01 3.11168969e-01 -1.61188592e+00 3.11168969e-01 -2.39923997e+01 4.84282722e+00 -1.61188592e+00 4.84282722e+00 -8.57487030e+01
-1.24262730e+01 -3.91196638e-01 3.50315708e+00 -3.91196638e-01 -9.46190763e+00 4.34350148e-02 3.50315708e+00 4.34350148e-02 -5.35588751e+01
1.23083402e+01 -1.99588761e-01 2.07786990e+00 -1.99588761e-01 1.02003555e+01 1.13596819e+00 2.07786990e+00 1.13596819e+00 -5.48954177e+00
6.43671227e+00 3.37184042e-01 7.04007566e-01 3.37184042e-01 5.34513521e+00 -7.50988960e-01 7.04007566e-01 -7.50988960e-01 -1.71361828e+01
-2.84766636e+01 9.09011900e-01 -6.97466612e-01 9.09011900e-01 -3.57900508e+01 -4.06924611e+00 -6.97466612e-01 -4.06924611e+00 -9.76953573e+01
-1.10493388e+01 -1.55842212e+00 -2.90776542e+00 -1.55842212e+00 -2.11716112e+01 6.63961881e+00 -2.90776542e+00 6.63961881e+00 -6.03211989e+01
1.36934865e+01 -4.02997747e-01 -9.46936309e-02 -4.02997747e-01 -3.07160878e+00 6.41107371e+00 -9.46936309e-02 6.41107371e+00 -2.79913116e+01
1.21322947e+01 -1.90417621e+00 1.95767975e+00 -1.90417621e+00 1.99268506e+01 -2.76626302e+00 1.95767975e+00 -2.76626302e+00 5.40648115e+00
8.57008438e+01 -3.15842700e+00 1.16725564e+00 -3.15842700e+00 6.04059410e+01 2.12228146e+01 1.16725564e+00 2.12228146e+01 8.42751007e+01
4.54632454e+01 2.26112962e+00 2.08961159e-01 2.26112962e+00 4.04916687e+01 7.35233879e+00 2.08961159e-01 7.35233879e+00 5.94002151e+01
8.93217027e+00 -3.02926153e+00 -2.03237383e+00 -3.02926153e+00 8.86056256e+00 -6.34641349e-02 -2.03237383e+00 -6.34641349e-02 6.58226129e+00
2.32342370e+00 -5.75811245e+00 -1.82508396e+00 -5.75811245e+00 1.25725505e+01 -4.67720109e+00 -1.82508396e+00 -4.67720109e+00 5.22348754e+00
-1.09460986e+00 -9.66992736e-01 1.47072327e+00 -9.66992736e-01 1.16134632e+00 -1.05702019e+00 1.47072327e+00 -1.05702019e+00 -5.40936112e-01
-9.39068973e-01 8.96261483e-02 1.70497492e-01 8.96261483e-02 -9.94756967e-02 7.46052980e-01 1.70497492e-01 7.46052980e-01 5.64260364e-01
8.91838551e-01 -6.18337929e-01 3.00021350e-01 -6.18337929e-01 -3.82295221e-01 -1.36187732e+00 3.00021350e-01 -1.36187732e+00 -9.84008789e-01
3.51139635e-01 -1.67553258e+00 -1.27061987e+00 -1.67553258e+00 4.93505031e-01 1.26998377e+00 -1.27061987e+00 1.26998377e+00 -1.31913090e+00
7.07178626e+00 2.55292971e+00 1.60890804e+00 2.55292971e+00 -2.94549031e+00 9.70686805e-01 1.60890804e+00 9.70686805e-01 -6.92893782e-01
1.30530233e+00 -4.24523870e-01 -1.37714227e-01 -4.24523870e-01 -5.14974535e+00 9.81143951e-01 -1.37714227e-01 9.81143951e-01 -7.22289254e-01
-3.42427838e+00 9.45680380e-01 -6.75815418e-02 9.45680380e-01 7.18026400e-01 -1.48258168e+00 -6.75815418e-02 -1.48258168e+00 4.39611286e-01
-5.17158695e+00 -2.60050424e+00 -3.25472216e-01 -2.60050424e+00 2.25614746e+00 -9.16421890e-01 -3.25472216e-01 -9.16421890e-01 3.30873680e+00
1.76807368e+00 -2.67486628e-02 1.24425441e-03 -2.67486628e-02 -1.95429659e+00 2.60626245e-03 1.24425441e-03 2.60626245e-03 -2.99680729e+01
-9.57055092e-02 2.96048030e-01 -1.01840990e-02 2.96048030e-01 -2.25163665e+00 3.35672021e-01 -1.01840990e-02 3.35672021e-01 -3.24523773e+01
7.88156033e-01 1.05579486e+00 2.35109448e-01 1.05579486e+00 -1.95922434e+00 4.39099649e-01 2.35109448e-01 4.39099649e-01 -3.10569005e+01
1.50122786e+00 3.49703133e-01 1.70627505e-01 3.49703133e-01 -2.64884567e+00 -9.90784820e-03 1.70627505e-01 -9.90784820e-03 -3.09623071e+01
-7.39854860e+00 6.20729864e-01 -7.81117612e-03 6.20729864e-01 -5.59374547e+00 1.09071586e+00 -7.81117612e-03 1.09071586e+00 -4.39147205e+01
-6.31700265e+00 2.16128483e+00 2.88257821e-01 2.16128483e+00 -5.28377676e+00 7.40718603e-01 2.88257821e-01 7.40718603e-01 -4.22186188e+01
-1.14969756e+01 1.22350517e+00 3.15284552e-02 1.22350517e+00 -6.99357724e+00 7.49606758e-01 3.15284552e-02 7.49606758e-01 -4.97046013e+01
-1.80661085e+01 1.72588135e+00 1.09341684e+00 1.72588135e+00 -1.04368593e+01 1.81259137e+00 1.09341684e+00 1.81259137e+00 -5.98562160e+01