<VTKFile type="UnstructuredGrid" version="0.1" byte_order="LittleEndian">
<UnstructuredGrid>
<Piece NumberOfPoints="191" NumberOfCells="79">
<Points>
<DataArray type="Float64" NumberOfComponents="3" format="ascii">
 1.00580382e+00  5.05097914e+00  1.97932696e+00
 2.01107144e+00  5.04914618e+00  1.98588049e+00
 2.01041460e+00  6.05988455e+00  1.97782099e+00
 1.00392675e+00  6.05790663e+00  1.97346878e+00
 1.00467253e+00  5.05719090e+00  2.96936226e+00
 2.01184797e+00  5.05815029e+00  2.96967936e+00
 2.00861073e+00  6.07245636e+00  2.95943809e+00
 1.00445986e+00  6.06303072e+00  2.96529913e+00
 3.01957250e+00  5.04627800e+00  1.98891878e+00
 3.02147651e+00  6.05854893e+00  1.97870457e+00
 3.02316523e+00  5.05372810e+00  2.96749330e+00
 3.03583193e+00  6.07573795e+00  2.93573499e+00
 5.01932240e+00  5.05084038e+00  2.00001049e+00
 6.01933050e+00  5.05341625e+00  1.99995542e+00
 6.01673126e+00  6.05343342e+00  2.00001335e+00
 5.01671553e+00  6.05084324e+00  2.00004244e+00
 5.01936769e+00  5.05079508e+00  2.99999595e+00
 6.01935530e+00  5.05339384e+00  2.99996734e+00
 6.01676416e+00  6.05337858e+00  3.00000072e+00
 5.01677895e+00  6.05078459e+00  3.00005364e+00
 0.00000000e+00  0.00000000e+00  2.93592668e+00
 1.01202893e+00  0.00000000e+00  2.93473315e+00
 1.01201820e+00  1.01263416e+00  2.93825006e+00
 0.00000000e+00  1.01248384e+00  2.94040823e+00
 0.00000000e+00  0.00000000e+00  3.91408563e+00
 1.01711845e+00  0.00000000e+00  3.91376114e+00
 1.01731455e+00  1.01153576e+00  3.91462636e+00
 0.00000000e+00  1.01118553e+00  3.91731668e+00
 2.02643442e+00  0.00000000e+00  2.92888308e+00
 2.02310967e+00  1.00960898e+00  2.93410277e+00
 2.03296542e+00  0.00000000e+00  3.91063166e+00
 2.03384805e+00  1.01203179e+00  3.90935206e+00
 3.03946185e+00  0.00000000e+00  2.92317009e+00
 3.03961992e+00  1.00719142e+00  2.92507362e+00
 3.04854393e+00  0.00000000e+00  3.90425444e+00
 3.04760623e+00  1.01075089e+00  3.90362668e+00
 4.05520535e+00  0.00000000e+00  2.91761255e+00
 4.05553007e+00  1.00774765e+00  2.91530442e+00
 4.06137991e+00  0.00000000e+00  3.89900303e+00
 4.06127405e+00  1.00850070e+00  3.89608908e+00
 5.06945705e+00  0.00000000e+00  2.90982342e+00
 5.07054138e+00  1.00876629e+00  2.91131544e+00
 5.07250643e+00  0.00000000e+00  3.89647532e+00
 5.07278252e+00  1.00718486e+00  3.89112139e+00
 6.08116055e+00  0.00000000e+00  2.90641212e+00
 6.08306885e+00  1.00733876e+00  2.90836954e+00
 6.08064556e+00  0.00000000e+00  3.89547896e+00
 6.08382273e+00  1.00564218e+00  3.89120960e+00
 1.00745881e+00  2.02318668e+00  2.94726896e+00
 0.00000000e+00  2.02726436e+00  2.94855857e+00
 1.01708007e+00  2.02507687e+00  3.92575359e+00
 0.00000000e+00  2.02538729e+00  3.92715549e+00
 2.02085423e+00  2.02230573e+00  2.93536448e+00
 2.03620529e+00  2.02571464e+00  3.91258049e+00
 3.03590584e+00  2.02519417e+00  2.91944242e+00
 3.04973555e+00  2.02342749e+00  3.89039230e+00
 4.05637264e+00  2.02855015e+00  2.91768003e+00
 4.05927038e+00  2.01920152e+00  3.88453102e+00
 5.07320595e+00  2.02445841e+00  2.91540170e+00
 5.07364511e+00  2.02211761e+00  3.88710117e+00
 6.08694077e+00  2.02106452e+00  2.91377234e+00
 6.08811712e+00  2.01928520e+00  3.88708448e+00
 1.00459349e+00  3.04019070e+00  2.96322608e+00
 0.00000000e+00  3.03957367e+00  2.95918036e+00
 1.01355910e+00  3.03982377e+00  3.93608427e+00
 0.00000000e+00  3.03770113e+00  3.94638014e+00
 2.01851273e+00  3.03617239e+00  2.94928145e+00
 2.03979802e+00  3.04218531e+00  3.90686870e+00
 3.01638341e+00  3.03124428e+00  2.85895753e+00
 3.06023049e+00  3.03371835e+00  3.87494969e+00
 1.00398803e+00  4.04872274e+00  2.97055578e+00
 0.00000000e+00  4.05074358e+00  2.96945405e+00
 1.00795472e+00  4.05291557e+00  3.95808220e+00
 0.00000000e+00  4.05263758e+00  3.95723224e+00
 0.00000000e+00  5.05499744e+00  2.97025800e+00
 1.00893271e+00  5.06518316e+00  3.95939040e+00
 0.00000000e+00  5.06104517e+00  3.95506620e+00
 2.01123857e+00  4.04860258e+00  2.98128557e+00
 2.02438426e+00  4.05619144e+00  3.94720197e+00
 2.02537489e+00  5.06350851e+00  3.95326591e+00
 0.00000000e+00  6.06336260e+00  2.96105838e+00
 1.01435268e+00  6.08179045e+00  3.93526506e+00
 0.00000000e+00  6.08402681e+00  3.94300652e+00
 2.02798009e+00  6.08835030e+00  3.92999744e+00
 3.04275751e+00  5.05616379e+00  3.90059853e+00
 3.06198263e+00  6.07170868e+00  3.90749502e+00
 0.00000000e+00  0.00000000e+00  4.88849258e+00
 1.02186263e+00  0.00000000e+00  4.88698578e+00
 1.02316725e+00  1.01203442e+00  4.88946342e+00
 0.00000000e+00  1.01118577e+00  4.88989258e+00
 2.03991437e+00  0.00000000e+00  4.88526869e+00
 2.04275584e+00  1.01457727e+00  4.88579082e+00
 3.05407739e+00  0.00000000e+00  4.88309956e+00
 3.05588150e+00  1.01587880e+00  4.88103008e+00
 4.06503201e+00  0.00000000e+00  4.87957096e+00
 4.06469297e+00  1.01427746e+00  4.87831306e+00
 5.07410717e+00  0.00000000e+00  4.87889481e+00
 5.07286739e+00  1.01179898e+00  4.87677479e+00
 6.08174515e+00  0.00000000e+00  4.87918711e+00
 6.08235645e+00  1.01199639e+00  4.87758446e+00
 1.02810955e+00  2.02771378e+00  4.89096117e+00
 0.00000000e+00  2.02389526e+00  4.89632702e+00
 2.04905367e+00  2.03063989e+00  4.88286400e+00
 3.06137705e+00  2.02931690e+00  4.87451601e+00
 4.06726122e+00  2.02565026e+00  4.86756754e+00
 5.07150316e+00  2.02168703e+00  4.86341524e+00
 6.07641983e+00  2.02122808e+00  4.86408281e+00
 1.02942455e+00  3.03654790e+00  4.91105890e+00
 0.00000000e+00  3.04241371e+00  4.91974497e+00
 2.05645132e+00  3.03842068e+00  4.87964916e+00
 3.07007122e+00  3.03561783e+00  4.86298656e+00
 4.06430721e+00  3.01405716e+00  3.84765863e+00
 4.07398224e+00  3.03053093e+00  4.85906124e+00
 1.02868986e+00  4.04813766e+00  4.93937874e+00
 0.00000000e+00  4.04261398e+00  4.92900753e+00
 2.06306529e+00  4.05232191e+00  4.88707972e+00
 1.02633405e+00  5.07769918e+00  4.91407776e+00
 0.00000000e+00  5.07932281e+00  4.91705894e+00
 1.03003263e+00  6.11020327e+00  4.90426111e+00
 0.00000000e+00  6.10869551e+00  4.90682173e+00
 2.04732537e+00  5.06857491e+00  4.90432692e+00
 2.06975436e+00  6.09289742e+00  4.89855766e+00
 3.06869745e+00  5.04852772e+00  4.86911440e+00
 3.09213257e+00  6.05555201e+00  4.87706041e+00
 4.03636837e+00  5.04114008e+00  3.83428335e+00
 4.06146288e+00  6.04333401e+00  3.85130548e+00
 4.08416939e+00  5.03083897e+00  4.85856771e+00
 4.09087896e+00  6.03233767e+00  4.85899448e+00
 5.08463573e+00  5.02560377e+00  3.85878229e+00
 6.08462000e+00  5.02013826e+00  3.85879111e+00
 6.09007359e+00  6.02013874e+00  3.85879230e+00
 5.09004784e+00  6.02562809e+00  3.85884619e+00
 5.08459997e+00  5.02560520e+00  4.85878372e+00
 6.08462763e+00  5.02015686e+00  4.85880756e+00
 6.09006071e+00  6.02013350e+00  4.85878849e+00
 5.09016418e+00  6.02550793e+00  4.85884237e+00
 0.00000000e+00  0.00000000e+00  5.85880995e+00
 1.02343512e+00  0.00000000e+00  5.85880995e+00
 1.02622092e+00  1.01399267e+00  5.85880995e+00
 0.00000000e+00  1.01170015e+00  5.85880995e+00
 2.04328227e+00  0.00000000e+00  5.85880995e+00
 2.04542065e+00  1.01683831e+00  5.85880995e+00
 3.05629158e+00  0.00000000e+00  5.85880995e+00
 3.05887341e+00  1.01796925e+00  5.85880995e+00
 4.06556129e+00  0.00000000e+00  5.85880995e+00
 4.06686831e+00  1.01804256e+00  5.85880995e+00
 5.07466650e+00  0.00000000e+00  5.85880995e+00
 5.07301188e+00  1.01638198e+00  5.85880995e+00
 6.08443785e+00  0.00000000e+00  5.85880995e+00
 6.07943821e+00  1.01845825e+00  5.85880995e+00
 1.03273022e+00  2.02380896e+00  5.85880995e+00
 0.00000000e+00  2.02220082e+00  5.85880995e+00
 2.05503774e+00  2.03025317e+00  5.85880995e+00
 3.06511688e+00  2.03208447e+00  5.85880995e+00
 4.07084274e+00  2.02926993e+00  5.85880995e+00
 5.07151461e+00  2.02504969e+00  5.85880995e+00
 6.07318974e+00  2.02311993e+00  5.85880995e+00
 1.04023468e+00  3.05395269e+00  5.85880995e+00
 0.00000000e+00  3.05789876e+00  5.85880995e+00
 2.06609130e+00  3.04387379e+00  5.85880995e+00
 3.07411814e+00  3.03749919e+00  5.85880995e+00
 4.07414246e+00  3.03077579e+00  5.85880995e+00
 5.07426643e+00  3.02521086e+00  4.85846138e+00
 5.07454681e+00  3.02537513e+00  5.85880995e+00
 6.07481527e+00  3.02106452e+00  4.85837650e+00
 6.07485819e+00  3.02172542e+00  5.85880995e+00
 3.07969046e+00  4.03662205e+00  4.85555983e+00
 3.08137846e+00  4.03815079e+00  5.85880995e+00
 2.08107185e+00  4.04866171e+00  5.85880995e+00
 4.07942867e+00  4.03049040e+00  4.85900640e+00
 4.07946491e+00  4.03063965e+00  5.85880995e+00
 5.07922077e+00  4.02563190e+00  4.85880232e+00
 5.07926512e+00  4.02555895e+00  5.85880995e+00
 6.07920361e+00  4.02053404e+00  4.85878754e+00
 6.07916307e+00  4.02036333e+00  5.85880995e+00
 0.00000000e+00  4.02860928e+00  5.85880995e+00
 1.05338526e+00  4.03678846e+00  5.85880995e+00
 1.03865647e+00  5.08954334e+00  5.85880995e+00
 0.00000000e+00  5.09117556e+00  5.85880995e+00
 5.08454514e+00  5.02559137e+00  5.85880995e+00
 4.08449459e+00  5.03099823e+00  5.85880995e+00
 6.08465242e+00  5.02019072e+00  5.85880995e+00
 1.04151165e+00  6.11606932e+00  5.85880995e+00
 0.00000000e+00  6.12064934e+00  5.85880995e+00
 2.05695534e+00  5.07057524e+00  5.85880995e+00
 2.08582401e+00  6.09041977e+00  5.85880995e+00
 3.07657933e+00  5.04287195e+00  5.85880995e+00
 3.09779501e+00  6.05086040e+00  5.85880995e+00
 4.09149408e+00  6.03159142e+00  5.85880995e+00
 5.09016085e+00  6.02542400e+00  5.85880995e+00
 6.09004402e+00  6.02015829e+00  5.85880995e+00
</DataArray>
</Points>
<PointData Tensors="Stress_Components,Plastic_strain_components" Vevtors="Spatial_displacement,Reaction_force" Scalars="Equivalent_plastic_strain,Stress_Mises,Stress_Max_Principal,Stress_Mid_Principal,Stress_Min_Principal,Stress_Pressure,Stress_Tresca,Stress_Third_Invariant,Plastic_strain_Max_Principal,Plastic_strain_Min_Principal">
<DataArray type="Float32" Name="Stress_Components" NumberOfComponents="9" format="ascii">
4.07943615e+00 -1.35173609e+00 4.09095272e-01 -1.35173609e+00 2.79590143e+00 1.30775091e+00 4.09095272e-01 1.30775091e+00 -2.15680442e+01
1.35046227e+00 -2.23779043e+00 7.16297058e-01 -2.23779043e+00 6.94753557e-01 2.23709716e+00 7.16297058e-01 2.23709716e+00 -2.59701526e+01
-3.91021705e+00 4.50403914e-01 1.09103606e+00 4.50403914e-01 1.61603093e-02 -3.20026508e-01 1.09103606e+00 -3.20026508e-01 -3.42290144e+01
8.87819946e-01 -8.84641409e-02 -6.79674855e-01 -8.84641409e-02 3.25468951e+00 -4.69810829e-01 -6.79674855e-01 -4.69810829e-01 -2.55344533e+01
1.37730809e+01 6.61620002e-01 1.86333707e+00 6.61620002e-01 1.54343835e+01 -4.86558201e-01 1.86333707e+00 -4.86558201e-01 1.74440312e+00
1.10778540e+01 -7.42417685e-01 1.92633365e-01 -7.42417685e-01 1.36172983e+01 1.57707592e+00 1.92633365e-01 1.57707592e+00 -4.79417583e+00
-9.33714211e+00 7.67240047e-01 9.06147867e-01 7.67240047e-01 -3.46934474e+00 -1.60700351e+00 9.06147867e-01 -1.60700351e+00 -4.19817069e+01
-4.40230787e-01 1.91258095e+00 2.53204366e+00 1.91258095e+00 1.49766588e+00 2.75368503e+00 2.53204366e+00 2.75368503e+00 -2.72977289e+01
-4.04160404e+00 8.91602397e-01 -3.29105330e+00 8.91602397e-01 -5.08028746e+00 4.25459084e+00 -3.29105330e+00 4.25459084e+00 -3.90042472e+01
-3.24594154e+01 4.55110058e-01 1.72560662e-01 4.55110058e-01 -2.88066111e+01 4.50248325e+00 1.72560662e-01 4.50248325e+00 -9.72241173e+01
-3.81702881e+01 4.22135353e+00 -1.69471639e+01 4.22135353e+00 -3.81771371e+01 -1.77239100e-01 -1.69471639e+01 -1.77239100e-01 -1.07394016e+02
-3.09753261e+01 4.50086105e+00 -9.56655788e+00 4.50086105e+00 -4.25722008e+01 -2.71567382e+00 -9.56655788e+00 -2.71567382e+00 -1.05862885e+02
1.36511654e-01 -6.52473390e-01 5.05711734e-02 -6.52473390e-01 -8.96594971e-02 -1.30643355e-01 5.05711734e-02 -1.30643355e-01 -4.52040121e-01
-2.22811751e-01 -4.93825018e-01 -2.93655396e-01 -4.93825018e-01 1.61240380e-01 -7.71834701e-02 -2.93655396e-01 -7.71834701e-02 -3.43611848e-01
2.41999269e-01 -1.88685097e-01 3.19641229e-01 -1.88685097e-01 3.08595803e-01 2.30912331e-01 3.19641229e-01 2.30912331e-01 -9.55791116e-01
1.66047320e-01 -3.47413674e-01 -2.07004920e-01 -3.47413674e-01 -3.77514340e-01 -2.72570401e-01 -2.07004920e-01 -2.72570401e-01 -1.93773791e-01
1.51854649e-01 2.10024223e-01 2.59426802e-01 2.10024223e-01 2.19715923e-01 3.39559197e-01 2.59426802e-01 3.39559197e-01 -9.24615636e-02
-1.54577449e-01 1.57136351e-01 2.31465340e-01 1.57136351e-01 -2.76146382e-01 -8.03875029e-02 2.31465340e-01 -8.03875029e-02 7.09840178e-01
1.15930848e-01 6.23991676e-02 -4.45575953e-01 6.23991676e-02 1.00274637e-01 -4.16363329e-01 -4.45575953e-01 -4.16363329e-01 6.29163310e-02
-2.76785046e-01 1.15293525e-01 -1.84343755e-02 1.15293525e-01 -1.03095137e-01 2.16306657e-01 -1.84343755e-02 2.16306657e-01 6.58962607e-01
-8.10484886e-02 2.75887945e-03 1.58825278e+00 2.75887945e-03 4.91705656e-01 -1.90459251e-01 1.58825278e+00 -1.90459251e-01 -2.94732018e+01
4.18778524e-01 1.17295258e-01 9.72488180e-01 1.17295258e-01 1.46235600e-01 3.52407640e-01 9.72488180e-01 3.52407640e-01 -2.93157830e+01
8.97573789e-01 -1.31665787e+00 1.50934400e+00 -1.31665787e+00 1.21048988e+00 4.40347737e-01 1.50934400e+00 4.40347737e-01 -2.74103103e+01
-7.04833120e-01 1.17039564e-01 1.51238915e+00 1.17039564e-01 7.07087606e-01 -8.58334854e-01 1.51238915e+00 -8.58334854e-01 -2.98912344e+01
2.90039244e+00 -5.24527160e-03 1.13251001e+00 -5.24527160e-03 -4.04296517e-01 -1.36099726e-01 1.13251001e+00 -1.36099726e-01 -2.70855761e+01
9.97738540e-01 1.07583143e-01 5.60051546e-01 1.07583143e-01 -1.56364015e+00 1.13601133e+00 5.60051546e-01 1.13601133e+00 -3.04077654e+01
1.63503669e+00 1.78744626e-01 1.61857858e+00 1.78744626e-01 -8.29175584e-01 6.99238800e-01 1.61857858e+00 6.99238800e-01 -2.87933959e+01
2.93182343e-01 2.54700206e-01 1.75273722e+00 2.54700206e-01 -2.53159338e+00 -7.39131957e-01 1.75273722e+00 -7.39131957e-01 -3.20693488e+01
2.94406849e+00 -1.34948562e+00 1.20520204e+00 -1.34948562e+00 1.71650112e-01 1.44543068e-01 1.20520204e+00 1.44543068e-01 -2.63887494e+01
3.02063233e+00 -1.86817935e+00 1.49703979e+00 -1.86817935e+00 1.40251787e+00 8.93596470e-01 1.49703979e+00 8.93596470e-01 -2.46206807e+01
1.61496347e+00 2.96239275e-01 8.90765842e-02 2.96239275e-01 -3.29284802e-01 7.74271663e-01 8.90765842e-02 7.74271663e-01 -2.85536356e+01
-5.85352853e-01 2.60757416e-01 1.36478097e+00 2.60757416e-01 -1.46864920e+00 1.88664518e+00 1.36478097e+00 1.88664518e+00 -3.20209006e+01
5.13259500e+00 1.06834564e-01 4.09609511e-01 1.06834564e-01 3.82825851e-01 9.44068573e-01 4.09609511e-01 9.44068573e-01 -2.35863957e+01
4.77010887e+00 -7.55215652e-01 -2.27463316e-01 -7.55215652e-01 1.60030693e+00 -3.77833521e-01 -2.27463316e-01 -3.77833521e-01 -2.26811740e+01
2.70984219e+00 -5.65857977e-01 -1.80497859e-02 -5.65857977e-01 3.53373244e-01 9.81622040e-01 -1.80497859e-02 9.81622040e-01 -2.65854435e+01
-1.17542610e-01 -7.08177849e-01 -4.93543237e-01 -7.08177849e-01 -1.33118492e+00 6.67771682e-01 -4.93543237e-01 6.67771682e-01 -3.13253767e+01
7.19222385e+00 2.82593817e-01 -6.18737832e-01 2.82593817e-01 2.16851616e+00 -6.65731840e-02 -6.18737832e-01 -6.65731840e-02 -1.94008819e+01
2.21276164e-01 4.20087130e-01 -1.03081303e+00 4.20087130e-01 -2.24371773e+00 7.73062930e-02 -1.03081303e+00 7.73062930e-02 -3.17674628e+01
2.98505156e+00 -1.81592762e-01 -1.19335383e+00 -1.81592762e-01 -1.45819426e-01 7.72533622e-01 -1.19335383e+00 7.72533622e-01 -2.67709785e+01
5.72898018e+00 -1.11346488e+00 -9.07854974e-01 -1.11346488e+00 3.49232434e+00 -7.00546825e-01 -9.07854974e-01 -7.00546825e-01 -1.97944565e+01
9.09778273e+00 2.45577864e-01 5.33948585e-01 2.45577864e-01 5.72425058e+00 -6.31609460e-01 5.33948585e-01 -6.31609460e-01 -1.37196196e+01
3.10535225e+00 3.39863612e-01 -1.07303970e-01 3.39863612e-01 8.68385255e-01 1.17635308e-01 -1.07303970e-01 1.17635308e-01 -2.55767682e+01
6.58548594e+00 6.40323041e-02 -2.05232474e+00 6.40323041e-02 4.58832163e+00 1.35069057e-01 -2.05232474e+00 1.35069057e-01 -1.76537134e+01
3.37011828e+00 -3.94492188e-01 -1.32946121e+00 -3.94492188e-01 2.45395580e+00 -5.57183167e-01 -1.32946121e+00 -5.57183167e-01 -2.33125052e+01
1.24946041e+01 2.71880783e-01 5.32050386e-01 2.71880783e-01 9.65046024e+00 -8.32513645e-01 5.32050386e-01 -8.32513645e-01 -5.71287584e+00
9.46410662e+00 1.10399943e-01 -2.81863885e-01 1.10399943e-01 7.43796562e+00 -6.49269819e-01 -2.81863885e-01 -6.49269819e-01 -1.15762997e+01
1.02444661e+01 1.41720587e+00 -1.45742178e+00 1.41720587e+00 8.80228209e+00 -7.00746328e-01 -1.45742178e+00 -7.00746328e-01 -9.17803931e+00
7.57057382e+00 7.66021129e-01 -6.59707785e-01 7.66021129e-01 5.91229749e+00 -3.49817166e-01 -6.59707785e-01 -3.49817166e-01 -1.50743087e+01
1.13307774e-01 -2.09991398e+00 3.49614397e+00 -2.09991398e+00 3.45439509e+00 8.89092979e-02 3.49614397e+00 8.89092979e-02 -2.41570889e+01
-2.80855656e-01 -1.48483664e+00 2.50460961e+00 -1.48483664e+00 4.78741598e+00 -3.63998204e-01 2.50460961e+00 -3.63998204e-01 -2.42027669e+01
-3.90667172e+00 -2.21250496e-01 4.57675165e+00 -2.21250496e-01 -6.51871130e+00 1.57834809e+00 4.57675165e+00 1.57834809e+00 -3.99342023e+01
-1.88260525e-03 -1.43502209e-01 3.43383825e+00 -1.43502209e-01 -1.41939953e+00 -4.61496465e-01 3.43383825e+00 -4.61496465e-01 -3.08527362e+01
2.78913287e+00 -2.48050217e-01 2.55067325e+00 -2.48050217e-01 1.44038957e+00 1.79947357e-01 2.55067325e+00 1.79947357e-01 -2.75862295e+01
-1.29135731e+00 9.67625519e-01 1.16167811e+00 9.67625519e-01 -1.84740871e+00 -9.88854650e-01 1.16167811e+00 -9.88854650e-01 -3.30284414e+01
-3.09505978e+01 -1.84341106e+00 -9.24366603e+00 -1.84341106e+00 -3.13536818e+01 -6.94090164e-01 -9.24366603e+00 -6.94090164e-01 -9.21077995e+01
1.25553014e+00 1.17046660e+00 -4.23935957e+00 1.17046660e+00 2.19578164e+00 2.60591541e-01 -4.23935957e+00 2.60591541e-01 -2.57889592e+01
-2.37137504e+01 1.64179802e-02 -3.07203987e+00 1.64179802e-02 -2.09000623e+01 1.99679706e+00 -3.07203987e+00 1.99679706e+00 -7.78849993e+01
-1.16891959e+01 -8.62849122e-01 -1.05439318e+01 -8.62849122e-01 -1.62766522e+01 1.53790046e+00 -1.05439318e+01 1.53790046e+00 -5.30239208e+01
-1.31058838e+01 -3.02982738e-01 -3.99680391e-01 -3.02982738e-01 -1.20481753e+01 1.49711721e+00 -3.99680391e-01 1.49711721e+00 -5.71287794e+01
-1.73322048e+01 3.63328576e-01 -3.32015997e+00 3.63328576e-01 -1.53644537e+01 -3.51328865e-01 -3.32015997e+00 -3.51328865e-01 -6.53238077e+01
-4.53885577e+00 2.15469271e-01 -4.78224337e-01 2.15469271e-01 -2.94874775e+00 3.64777520e-01 -4.78224337e-01 3.64777520e-01 -3.80381794e+01
-1.56995916e+01 2.70579308e-01 -2.89672899e+00 2.70579308e-01 -1.38868427e+01 -3.48324358e+00 -2.89672899e+00 -3.48324358e+00 -6.09564171e+01
-5.08626074e+00 -1.20331823e+00 5.23358999e+00 -1.20331823e+00 -1.55860105e-01 6.93700620e-01 5.23358999e+00 6.93700620e-01 -3.24530313e+01
5.88420522e+00 5.51947221e-01 3.24569807e+00 5.51947221e-01 1.07662649e+01 2.95767128e-01 3.24569807e+00 2.95767128e-01 -1.06153461e+01
9.24880164e-03 -6.27160169e-01 4.33624611e+00 -6.27160169e-01 -1.50789962e+00 -1.70444242e-01 4.33624611e+00 -1.70444242e-01 -2.98877810e+01
6.44149899e+00 3.07475660e-01 3.40808111e+00 3.07475660e-01 7.89563018e+00 -1.07628539e+00 3.40808111e+00 -1.07628539e+00 -1.36923505e+01
-4.71283183e+01 -6.17662978e+00 1.16577774e+01 -6.17662978e+00 -4.29247746e+01 -1.19795074e+01 1.16577774e+01 -1.19795074e+01 -1.15299803e+02
-1.46875645e+01 5.68555224e-01 4.19846368e-01 5.68555224e-01 -2.10297955e+01 -4.77107363e+00 4.19846368e-01 -4.77107363e+00 -6.72602608e+01
-2.04866695e+01 -7.91581726e+00 -2.68809872e+01 -7.91581726e+00 -1.76430988e+01 -1.36787024e+01 -2.68809872e+01 -1.36787024e+01 -5.16651011e+00
2.02218989e+01 -1.23241631e+00 -2.19332329e+00 -1.23241631e+00 2.11871234e+01 -4.28550434e+00 -2.19332329e+00 -4.28550434e+00 1.28829327e+01
6.36992499e+00 -3.70238017e-01 1.56505362e+00 -3.70238017e-01 9.09524236e+00 2.16182209e+00 1.56505362e+00 2.16182209e+00 -1.22931382e+01
5.47458386e+00 -1.03445496e+00 3.39227688e+00 -1.03445496e+00 9.12898725e+00 -1.85934687e-01 3.39227688e+00 -1.85934687e-01 -1.21963357e+01
1.57313559e+01 -3.35677199e-01 2.02277079e+00 -3.35677199e-01 1.83299798e+01 9.23159579e-01 2.02277079e+00 9.23159579e-01 8.47244581e+00
1.64525775e+01 -4.50034786e-01 1.58548957e+00 -4.50034786e-01 1.81425854e+01 5.66464409e-01 1.58548957e+00 5.66464409e-01 7.48122740e+00
7.37830876e+00 9.01346497e-01 -6.08681738e-02 9.01346497e-01 9.39180994e+00 1.96542693e-01 -6.08681738e-02 1.96542693e-01 -1.14284196e+01
2.35808621e+00 1.39803794e+00 2.29173541e-01 1.39803794e+00 3.95800858e+00 2.84560850e+00 2.29173541e-01 2.84560850e+00 -2.18816932e+01
4.01955271e+00 1.46922876e+00 5.57456717e-01 1.46922876e+00 7.38224407e+00 9.01269995e-01 5.57456717e-01 9.01269995e-01 -1.70309901e+01
-1.90876592e+01 2.13315504e-01 3.33025432e+00 2.13315504e-01 -1.49906649e+01 1.31289784e+01 3.33025432e+00 1.31289784e+01 -5.42914319e+01
-4.90358734e+01 -2.02099478e+00 1.37415738e+01 -2.02099478e+00 -5.65226116e+01 5.83390558e+00 1.37415738e+01 5.83390558e+00 -1.40339733e+02
-1.21040799e+01 -1.89816628e+00 -3.16201754e+00 -1.89816628e+00 -8.18703794e+00 -3.00437927e-01 -3.16201754e+00 -3.00437927e-01 -4.95281572e+01
-2.84053826e+00 -5.57590835e-02 9.23447192e-01 -5.57590835e-02 1.87995338e+00 2.06428534e+00 9.23447192e-01 2.06428534e+00 -3.03425174e+01
6.81486607e+00 1.50053661e+00 -8.87115680e-01 1.50053661e+00 7.40025401e+00 9.35118504e-01 -8.87115680e-01 9.35118504e-01 -1.50944805e+01
-5.99704123e+00 -1.43787029e+00 2.97072220e+00 -1.43787029e+00 2.82706738e-01 -1.30653289e+00 2.97072220e+00 -1.30653289e+00 -3.55976331e+01
-1.11180663e+01 -1.88590619e+00 -3.36963373e+00 -1.88590619e+00 -9.84285426e+00 5.77786955e+00 -3.36963373e+00 5.77786955e+00 -4.93169966e+01
-4.19401503e+01 5.27361194e+00 3.78692349e-01 5.27361194e+00 -3.10232328e+01 -2.23018745e+01 3.78692349e-01 -2.23018745e+01 -8.80519826e+01
-1.23358310e+01 -1.61727090e+00 -2.50893984e+00 -1.61727090e+00 -1.14459378e+01 -7.37280194e+00 -2.50893984e+00 -7.37280194e+00 -4.69812094e+01
2.12382704e+00 -7.77270738e-03 3.89160439e-01 -7.77270738e-03 -3.75555825e+00 -3.49976912e-01 3.89160439e-01 -3.49976912e-01 -3.11925602e+01
6.57200515e-01 3.92315149e-01 4.43000712e-01 3.92315149e-01 -3.54496178e+00 7.27490522e-01 4.43000712e-01 7.27490522e-01 -3.27707200e+01
7.86464892e-01 1.34045055e+00 9.73671280e-01 1.34045055e+00 -3.22787419e+00 6.32451110e-01 9.73671280e-01 6.32451110e-01 -3.21532588e+01
2.08153732e+00 2.84577131e-01 1.00436525e+00 2.84577131e-01 -3.66015529e+00 -2.43745640e-01 1.00436525e+00 -2.43745640e-01 -3.11035538e+01
-2.91110420e+00 1.07456012e+00 -2.05529455e-01 1.07456012e+00 -3.04109359e+00 1.28588726e+00 -2.05529455e-01 1.28588726e+00 -3.62618036e+01
-2.51141124e+00 2.11266367e+00 5.20735890e-01 2.11266367e+00 -2.31661414e+00 8.51862879e-01 5.20735890e-01 8.51862879e-01 -3.47581749e+01
-4.13253387e+00 7.35934868e-01 -5.41590504e-01 7.35934868e-01 -1.27463874e+00 3.80531639e-01 -5.41590504e-01 3.80531639e-01 -3.57550306e+01
-5.18042929e+00 1.27314822e+00 -1.88428927e-01 1.27314822e+00 -1.18895598e+00 1.32798959e+00 -1.88428927e-01 1.32798959e+00 -3.63266208e+01
-2.90264410e+00 -4.29459751e-01 -2.61648417e-01 -4.29459751e-01 6.26305461e-01 2.42146915e-01 -2.61648417e-01 2.42146915e-01 -3.23537469e+01
-2.43149211e+00 -4.81870743e-01 -7.19939545e-01 -4.81870743e-01 1.70416371e+00 2.80836255e-01 -7.19939545e-01 2.80836255e-01 -3.03164065e+01
-7.21584648e-01 -7.26169303e-01 -7.68796995e-01 -7.26169303e-01 2.76365036e+00 2.99640786e-01 -7.68796995e-01 2.99640786e-01 -2.76195965e+01
1.03318929e+00 -1.29758059e+00 -1.89652106e+00 -1.29758059e+00 2.91472882e+00 -2.18427159e-01 -1.89652106e+00 -2.18427159e-01 -2.51431576e+01
-1.07476985e+00 3.09995249e-01 -5.21139413e-01 3.09995249e-01 3.86339259e+00 5.32025620e-01 -5.21139413e-01 5.32025620e-01 -2.67655230e+01
-1.29333615e-01 -1.52505901e+00 -9.16726887e-01 -1.52505901e+00 1.42973232e+00 -1.19043390e+00 -9.16726887e-01 -1.19043390e+00 -2.80099503e+01
-5.77080861e-01 1.97316394e+00 1.91895959e+00 1.97316394e+00 -6.34979105e+00 1.17387623e+00 1.91895959e+00 1.17387623e+00 -3.64504616e+01
-1.66510344e+00 1.01124886e+00 2.60852706e+00 1.01124886e+00 -8.38058043e+00 -8.07294741e-01 2.60852706e+00 -8.07294741e-01 -3.97571349e+01
6.61693692e-01 2.33393618e+00 9.15667750e-02 2.33393618e+00 -6.44862771e-01 4.48112385e-01 9.15667750e-02 4.48112385e-01 -2.95355540e+01
4.50566942e+00 1.98684843e+00 -2.76884299e+00 1.98684843e+00 5.37118410e+00 -3.30753554e-01 -2.76884299e+00 -3.30753554e-01 -1.77626883e+01
4.07956753e+00 8.00064104e-01 -3.32239205e+00 8.00064104e-01 7.10045164e+00 -3.27984163e-01 -3.32239205e+00 -3.27984163e-01 -1.77202666e+01
-8.46236189e-01 -1.04473213e+00 -4.94417659e+00 -1.04473213e+00 2.63270390e+00 -2.05161525e+00 -4.94417659e+00 -2.05161525e+00 -2.71533578e+01
-1.77490064e+00 -4.16113631e+00 -7.25358788e+00 -4.16113631e+00 -4.83530887e+00 -4.58134874e+00 -7.25358788e+00 -4.58134874e+00 -3.25566147e+01
-7.53858360e+00 -8.57173403e-02 6.94215508e+00 -8.57173403e-02 -1.79943277e+01 -1.57815092e+00 6.94215508e+00 -1.57815092e+00 -5.40245891e+01
-1.72431458e+01 -1.96642506e+00 8.50783078e+00 -1.96642506e+00 -2.82276580e+01 -2.95282094e+00 8.50783078e+00 -2.95282094e+00 -7.51383260e+01
4.56137934e+00 2.05636414e+00 5.24026752e-01 2.05636414e+00 -1.35422868e+00 -3.02395609e+00 5.24026752e-01 -3.02395609e+00 -2.52671241e+01
1.43556292e+01 3.10507184e+00 -4.94771555e+00 3.10507184e+00 1.02844868e+01 -1.79056212e-01 -4.94771555e+00 -1.79056212e-01 -6.18307670e-01
-7.56570530e+00 -8.79445362e+00 -1.41917620e+01 -8.79445362e+00 -1.91061325e+01 -1.19865065e+01 -1.41917620e+01 -1.19865065e+01 1.65800130e+00
1.83514612e+01 1.92695048e+00 -1.66327233e+00 1.92695048e+00 1.58684992e+01 -4.81903495e+00 -1.66327233e+00 -4.81903495e+00 1.20333135e+01
-9.90301061e+00 2.57015660e-01 7.98488975e-01 2.57015660e-01 -1.31902651e+01 6.14366400e+00 7.98488975e-01 6.14366400e+00 -4.89990737e+01
-5.03870320e+00 1.17798565e+00 -3.13980504e+00 1.17798565e+00 -8.29708801e+00 3.49659808e+00 -3.13980504e+00 3.49659808e+00 -4.34109523e+01
-4.06564884e+01 -2.57450330e+00 4.31492686e+00 -2.57450330e+00 -6.00834713e+01 -9.90270853e+00 4.31492686e+00 -9.90270853e+00 -1.38828861e+02
-1.06732973e+01 -4.58295852e-01 -7.15803598e-01 -4.58295852e-01 -7.07858237e+00 3.55629035e+00 -7.15803598e-01 3.55629035e+00 -4.87414379e+01
-2.83617902e+00 -2.10979570e-01 2.41034039e+00 -2.10979570e-01 -3.50206614e-01 1.07816504e-01 2.41034039e+00 1.07816504e-01 -3.34754410e+01
-1.80250335e+00 -8.30722570e-01 1.25941208e+00 -8.30722570e-01 -4.41539645e+00 1.98498222e+00 1.25941208e+00 1.98498222e+00 -3.62333038e+01
1.45253229e+00 1.93484113e-01 2.38613985e+00 1.93484113e-01 6.54910088e-01 -1.40174216e+00 2.38613985e+00 -1.40174216e+00 -2.71926711e+01
-1.91609600e+01 1.77410168e+00 -1.36370245e+00 1.77410168e+00 -2.17687559e+01 -4.61093670e+00 -1.36370245e+00 -4.61093670e+00 -7.27887866e+01
-5.45848560e+00 -1.71580258e+00 -1.99361388e+00 -1.71580258e+00 -1.20088391e+01 5.19265418e+00 -1.99361388e+00 5.19265418e+00 -4.62963266e+01
1.85821030e+01 1.93279241e+00 5.39304763e-02 1.93279241e+00 8.21006012e+00 3.66652703e+00 5.39304763e-02 3.66652703e+00 -8.57490492e+00
2.41285753e+00 -2.45600694e+00 3.25095303e-01 -2.45600694e+00 8.70137954e+00 -8.18582639e-01 3.25095303e-01 -8.18582639e-01 -1.69168074e+01
5.08621330e+01 9.27320421e-01 1.95395207e+00 9.27320421e-01 4.43300781e+01 8.22321892e+00 1.95395207e+00 8.22321892e+00 5.93574409e+01
3.26467628e+01 1.38871387e-01 2.24451137e+00 1.38871387e-01 2.85984325e+01 3.78578568e+00 2.24451137e+00 3.78578568e+00 4.86097641e+01
4.88920403e+00 -4.44572663e+00 -1.65444688e+00 -4.44572663e+00 1.37891519e+00 2.04863365e+00 -1.65444688e+00 2.04863365e+00 2.20506489e-01
8.12124793e+00 -5.05683676e+00 -2.88217415e-01 -5.05683676e+00 1.72721812e+01 -5.42469978e+00 -2.88217415e-01 -5.42469978e+00 1.17416951e+01
-8.23652506e-01 -1.11392450e+00 1.36112773e+00 -1.11392450e+00 8.55885983e-01 -5.49818039e-01 1.36112773e+00 -5.49818039e-01 -7.03967512e-01
-6.92693830e-01 -2.52371639e-01 4.11351353e-01 -2.52371639e-01 -4.37412784e-03 3.44891131e-01 4.11351353e-01 3.44891131e-01 2.54282281e-02
7.35776901e-01 -7.47879684e-01 -7.47456402e-02 -7.47879684e-01 -2.99228013e-01 -1.39361084e+00 -7.47456402e-02 -1.39361084e+00 -1.10823524e+00
4.03042287e-01 -1.60978138e+00 -1.16208839e+00 -1.60978138e+00 3.59332383e-01 1.30155325e+00 -1.16208839e+00 1.30155325e+00 -1.43410611e+00
6.51831939e+00 3.24787488e+00 8.67621958e-01 3.24787488e+00 -1.77315904e+00 1.73840281e+00 8.67621958e-01 1.73840281e+00 -5.99893779e-01
1.30428261e+00 -4.00918305e-01 4.78028424e-01 -4.00918305e-01 -5.71580601e+00 8.88023754e-01 4.78028424e-01 8.88023754e-01 -1.53878947e-01
-3.51361275e+00 1.23832500e+00 -1.85158145e-01 1.23832500e+00 -1.80205047e-01 -1.43748796e+00 -1.85158145e-01 -1.43748796e+00 5.50669439e-01
-5.19157310e+00 -2.90223169e+00 -1.04756441e+00 -2.90223169e+00 2.07334141e+00 -1.12648221e+00 -1.04756441e+00 -1.12648221e+00 3.31249734e+00
1.56544292e+00 -1.11106522e-02 -3.86386737e-03 -1.11106522e-02 -4.44887161e+00 1.16990972e-03 -3.86386737e-03 1.16990972e-03 -3.25404549e+01
6.92854226e-01 7.12613732e-01 -1.11419274e-02 7.12613732e-01 -3.24277246e+00 4.78189826e-01 -1.11419274e-02 4.78189826e-01 -3.24662075e+01
-5.31807244e-01 1.98973176e+00 5.46772987e-01 1.98973176e+00 -5.91542351e+00 8.79118815e-01 5.46772987e-01 8.79118815e-01 -3.61929865e+01
1.88103271e+00 5.02301797e-01 3.08478564e-01 5.02301797e-01 -5.58163476e+00 -8.58615944e-03 3.08478564e-01 -8.58615944e-03 -3.31259947e+01
-3.60567728e+00 6.67061925e-01 -9.28115984e-03 6.67061925e-01 -2.65921044e+00 1.21528310e+00 -9.28115984e-03 1.21528310e+00 -3.66044254e+01
-4.22223917e+00 2.88428488e+00 6.84577316e-01 2.88428488e+00 -4.09948695e+00 9.17297795e-01 6.84577316e-01 9.17297795e-01 -3.83056064e+01
-7.67823899e+00 1.08133349e+00 1.69057706e-02 1.08133349e+00 -1.74298388e+00 9.45842832e-01 1.69057706e-02 9.45842832e-01 -3.95864830e+01
-6.10780901e+00 2.15944451e+00 1.02135806e+00 2.15944451e+00 -1.12514463e+00 1.33630283e+00 1.02135806e+00 1.33630283e+00 -3.69508166e+01