<VTKFile type="UnstructuredGrid" version="0.1" byte_order="LittleEndian">
<UnstructuredGrid>
<Piece NumberOfPoints="191" NumberOfCells="79">
<Points>
<DataArray type="Float64" NumberOfComponents="3" format="ascii">
 1.04659331e+00  5.25451231e+00  1.87479019e+00
 2.07749510e+00  5.24158859e+00  1.89753032e+00
 2.07926583e+00  6.30586958e+00  1.85209262e+00
 1.04118764e+00  6.29937887e+00  1.84322202e+00
 1.03784394e+00  5.29337883e+00  2.80807543e+00
 2.08284855e+00  5.28853559e+00  2.81929922e+00
 2.06970263e+00  6.37075281e+00  2.76351237e+00
 1.04139614e+00  6.33768463e+00  2.77016091e+00
 3.13110828e+00  5.22338009e+00  1.92099512e+00
 3.14229536e+00  6.29200935e+00  1.85554719e+00
 3.12531352e+00  5.27957392e+00  2.79622316e+00
 3.18114853e+00  6.34322071e+00  2.71188116e+00
 5.13880968e+00  5.20913124e+00  2.00003386e+00
 6.13881063e+00  5.21042156e+00  2.00003195e+00
 6.13751841e+00  6.21042967e+00  1.99998271e+00
 5.13749075e+00  6.20914555e+00  1.99996555e+00
 5.13879728e+00  5.20919418e+00  3.00002050e+00
 6.13879108e+00  5.21049261e+00  3.00004053e+00
 6.13749361e+00  6.21048355e+00  2.99997330e+00
 5.13750887e+00  6.20918322e+00  2.99997449e+00
 0.00000000e+00  0.00000000e+00  2.71879816e+00
 1.05354130e+00  0.00000000e+00  2.71681404e+00
 1.05682349e+00  1.05885196e+00  2.72268867e+00
 0.00000000e+00  1.05658436e+00  2.72795630e+00
 0.00000000e+00  0.00000000e+00  3.62303829e+00
 1.07190537e+00  0.00000000e+00  3.62391520e+00
 1.07391858e+00  1.05896068e+00  3.62550259e+00
 0.00000000e+00  1.05516267e+00  3.63431001e+00
 2.11890793e+00  0.00000000e+00  2.70236468e+00
 2.10629749e+00  1.05068696e+00  2.71146321e+00
 2.13925648e+00  0.00000000e+00  3.61344886e+00
 2.14232922e+00  1.06232917e+00  3.61310863e+00
 3.17690086e+00  0.00000000e+00  2.68649006e+00
 3.17810154e+00  1.04600620e+00  2.69043779e+00
 3.20778465e+00  0.00000000e+00  3.59630132e+00
 3.20059991e+00  1.05464184e+00  3.59818864e+00
 4.24672365e+00  0.00000000e+00  2.67285252e+00
 4.24975443e+00  1.04771543e+00  2.66785669e+00
 4.26825523e+00  0.00000000e+00  3.58391500e+00
 4.26488018e+00  1.04581594e+00  3.57711530e+00
 5.32051945e+00  0.00000000e+00  2.65615773e+00
 5.32084322e+00  1.05062079e+00  2.65844131e+00
 5.32710028e+00  0.00000000e+00  3.57483268e+00
 5.32605267e+00  1.04502034e+00  3.56280041e+00
 6.38886738e+00  0.00000000e+00  2.65095711e+00
 6.38823843e+00  1.05166793e+00  2.65245271e+00
 6.37478971e+00  0.00000000e+00  3.57130027e+00
 6.39004803e+00  1.04578137e+00  3.56300020e+00
 1.04038584e+00  2.11139679e+00  2.74416614e+00
 0.00000000e+00  2.12657619e+00  2.74763322e+00
 1.07369781e+00  2.11885381e+00  3.64907503e+00
 0.00000000e+00  2.11882734e+00  3.65067697e+00
 2.10641670e+00  2.11367249e+00  2.72236466e+00
 2.15233779e+00  2.12634563e+00  3.62152386e+00
 3.16733027e+00  2.12023735e+00  2.67890692e+00
 3.21104622e+00  2.11971450e+00  3.56452131e+00
 4.24456692e+00  2.13273549e+00  2.66760468e+00
 4.25392675e+00  2.10490417e+00  3.54574776e+00
 5.31449556e+00  2.12531543e+00  2.67016673e+00
 5.32021141e+00  2.11754370e+00  3.54653692e+00
 6.37452793e+00  2.13372469e+00  2.66458178e+00
 6.37758493e+00  2.12180686e+00  3.54550958e+00
 1.03638422e+00  3.19050503e+00  2.78925490e+00
 0.00000000e+00  3.18719435e+00  2.78534698e+00
 1.07023084e+00  3.18782854e+00  3.68563676e+00
 0.00000000e+00  3.18663120e+00  3.69512963e+00
 2.09569669e+00  3.16738248e+00  2.75776505e+00
 2.17065620e+00  3.19252706e+00  3.61126399e+00
 3.07470012e+00  3.14176893e+00  2.44238949e+00
 3.24028206e+00  3.17169905e+00  3.48799896e+00
 1.03696311e+00  4.23612165e+00  2.82271338e+00
 0.00000000e+00  4.24484491e+00  2.81479168e+00
 1.05696166e+00  4.25931644e+00  3.75102663e+00
 0.00000000e+00  4.26759005e+00  3.72804809e+00
 0.00000000e+00  5.28684139e+00  2.80361533e+00
 1.05054557e+00  5.33990669e+00  3.72876215e+00
 0.00000000e+00  5.31866503e+00  3.71441317e+00
 2.08604956e+00  4.23667908e+00  2.85834646e+00
 2.12681890e+00  4.27329016e+00  3.72642541e+00
 2.12154460e+00  5.31700420e+00  3.73430777e+00
 0.00000000e+00  6.34222460e+00  2.75855231e+00
 1.07109845e+00  6.39879560e+00  3.65552521e+00
 0.00000000e+00  6.41636658e+00  3.67515993e+00
 2.12107754e+00  6.42208910e+00  3.65895367e+00
 3.15991664e+00  5.29408884e+00  3.60325980e+00
 3.25251269e+00  6.33397388e+00  3.60607195e+00
 0.00000000e+00  0.00000000e+00  4.51851368e+00
 1.08904433e+00  0.00000000e+00  4.51573181e+00
 1.09293604e+00  1.06098127e+00  4.51890659e+00
 0.00000000e+00  1.05674839e+00  4.52213097e+00
 2.16293454e+00  0.00000000e+00  4.51086378e+00
 2.17382932e+00  1.07060051e+00  4.50946045e+00
 3.22599816e+00  0.00000000e+00  4.50203037e+00
 3.23270535e+00  1.07285357e+00  4.50142384e+00
 4.28404140e+00  0.00000000e+00  4.49321604e+00
 4.27684593e+00  1.06591296e+00  4.49282312e+00
 5.33085966e+00  0.00000000e+00  4.48894596e+00
 5.32378244e+00  1.05974257e+00  4.48444414e+00
 6.36880255e+00  0.00000000e+00  4.48596144e+00
 6.37050200e+00  1.06517315e+00  4.48739815e+00
 1.10590565e+00  2.12889433e+00  4.52604961e+00
 0.00000000e+00  2.11794853e+00  4.53374577e+00
 2.19352865e+00  2.14206314e+00  4.50873947e+00
 3.25074816e+00  2.14363122e+00  4.48118067e+00
 4.28414631e+00  2.12917495e+00  4.45812035e+00
 5.30848789e+00  2.11106086e+00  4.44522572e+00
 6.33895588e+00  2.11883998e+00  4.44528866e+00
 1.10770047e+00  3.17929769e+00  4.56490517e+00
 0.00000000e+00  3.19904065e+00  4.58048630e+00
 2.21626687e+00  3.18660688e+00  4.50181580e+00
 3.28999496e+00  3.17916250e+00  4.42514992e+00
 4.27389956e+00  3.07739210e+00  3.35400915e+00
 4.30785608e+00  3.16101766e+00  4.40174961e+00
 1.11370361e+00  4.25412464e+00  4.64440823e+00
 0.00000000e+00  4.24019241e+00  4.60138416e+00
 2.22803640e+00  4.23425579e+00  4.54403257e+00
 1.09380555e+00  5.37345600e+00  4.57339239e+00
 0.00000000e+00  5.38232946e+00  4.57396412e+00
 1.11402667e+00  6.48690414e+00  4.53849316e+00
 0.00000000e+00  6.48049927e+00  4.55298519e+00
 2.17336679e+00  5.34445000e+00  4.58094883e+00
 2.26157093e+00  6.42503071e+00  4.54938602e+00
 3.26617742e+00  5.25020361e+00  4.45540285e+00
 3.37542391e+00  6.28151560e+00  4.48696995e+00
 4.06339025e+00  5.22209120e+00  3.27573824e+00
 4.22665548e+00  6.21294451e+00  3.36839557e+00
 4.34343338e+00  5.16097689e+00  4.40046930e+00
 4.36268997e+00  6.16226768e+00  4.40080500e+00
 5.34373903e+00  5.14324951e+00  3.40062594e+00
 6.34356213e+00  5.12530756e+00  3.40060306e+00
 6.36151218e+00  6.12515116e+00  3.40064645e+00
 5.36163473e+00  6.14312840e+00  3.40072060e+00
 5.34370756e+00  5.14322853e+00  4.40062618e+00
 6.34362411e+00  5.12526751e+00  4.40062332e+00
 6.36151457e+00  6.12512255e+00  4.40064049e+00
 5.36176968e+00  6.14297152e+00  4.40071297e+00
 0.00000000e+00  0.00000000e+00  5.40065479e+00
 1.09440315e+00  0.00000000e+00  5.40065479e+00
 1.10176253e+00  1.06526756e+00  5.40065479e+00
 0.00000000e+00  1.05871058e+00  5.40065479e+00
 2.17510152e+00  0.00000000e+00  5.40065479e+00
 2.18238187e+00  1.07580554e+00  5.40065479e+00
 3.23384142e+00  0.00000000e+00  5.40065479e+00
 3.24575663e+00  1.08108354e+00  5.40065479e+00
 4.28688335e+00  0.00000000e+00  5.40065479e+00
 4.28740072e+00  1.08034444e+00  5.40065479e+00
 5.33016253e+00  0.00000000e+00  5.40065479e+00
 5.32554722e+00  1.07506955e+00  5.40065479e+00
 6.37543583e+00  0.00000000e+00  5.40065479e+00
 6.35054350e+00  1.08487666e+00  5.40065479e+00
 1.12260747e+00  2.11834073e+00  5.40065479e+00
 0.00000000e+00  2.11256981e+00  5.40065479e+00
 2.21697474e+00  2.14323401e+00  5.40065479e+00
 3.26594305e+00  2.15570784e+00  5.40065479e+00
 4.29592848e+00  2.14484644e+00  5.40065479e+00
 5.30541325e+00  2.12899590e+00  5.40065479e+00
 6.32605886e+00  2.12994599e+00  5.40065479e+00
 1.13077688e+00  3.22161388e+00  5.40065479e+00
 0.00000000e+00  3.22778273e+00  5.40065479e+00
 2.25118971e+00  3.19539452e+00  5.40065479e+00
 3.30615687e+00  3.19004297e+00  5.40065479e+00
 4.30851698e+00  3.16173697e+00  5.40065479e+00
 5.30820560e+00  3.14261889e+00  4.39994097e+00
 5.30876398e+00  3.14330506e+00  5.40065479e+00
 6.31028986e+00  3.12751460e+00  4.39925146e+00
 6.31054211e+00  3.12929320e+00  5.40065479e+00
 3.32592511e+00  4.18044329e+00  4.38314199e+00
 3.33608699e+00  4.19322348e+00  5.40065479e+00
 2.32262921e+00  4.22448158e+00  5.40065479e+00
 4.32609844e+00  4.16073370e+00  4.40091419e+00
 4.32624722e+00  4.16094065e+00  5.40065479e+00
 5.32586622e+00  4.14344597e+00  4.40060949e+00
 5.32595158e+00  4.14334774e+00  5.40065479e+00
 6.32557583e+00  4.12568092e+00  4.40070581e+00
 6.32548618e+00  4.12553787e+00  5.40065479e+00
 0.00000000e+00  4.20907259e+00  5.40065479e+00
 1.14308274e+00  4.24036694e+00  5.40065479e+00
 1.12813425e+00  5.40234327e+00  5.40065479e+00
 0.00000000e+00  5.42708397e+00  5.40065479e+00
 5.34365177e+00  5.14322710e+00  5.40065479e+00
 4.34382677e+00  5.16105795e+00  5.40065479e+00
 6.34366179e+00  5.12529325e+00  5.40065479e+00
 1.13829994e+00  6.50926113e+00  5.40065479e+00
 0.00000000e+00  6.49782896e+00  5.40065479e+00
 2.21749330e+00  5.35105371e+00  5.40065479e+00
 2.31243682e+00  6.42009211e+00  5.40065479e+00
 3.28485537e+00  5.22802305e+00  5.40065479e+00
 3.39795852e+00  6.26523876e+00  5.40065479e+00
 4.36305666e+00  6.16149759e+00  5.40065479e+00
 5.36178303e+00  6.14291000e+00  5.40065479e+00
 6.36151123e+00  6.12512016e+00  5.40065479e+00
</DataArray>
</Points>
<PointData Tensors="Stress_Components,Plastic_strain_components" Vevtors="Spatial_displacement,Reaction_force" Scalars="Equivalent_plastic_strain,Stress_Mises,Stress_Max_Principal,Stress_Mid_Principal,Stress_Min_Principal,Stress_Pressure,Stress_Tresca,Stress_Third_Invariant,Plastic_strain_Max_Principal,Plastic_strain_Min_Principal">
<DataArray type="Float32" Name="Stress_Components" NumberOfComponents="9" format="ascii">
1.77790792e+01 8.01717266e-02 1.73259988e-01 8.01717266e-02 1.48904373e+01 2.89659556e-02 1.73259988e-01 2.89659556e-02 5.50977993e+00
6.00144893e+00 -2.82625605e+00 8.99172164e-01 -2.82625605e+00 5.13324755e+00 2.49924669e+00 8.99172164e-01 2.49924669e+00 -1.54771858e+01
-1.31640768e+01 -4.41410832e-01 1.44178477e+00 -4.41410832e-01 -6.50489616e+00 -2.90479736e+00 1.44178477e+00 -2.90479736e+00 -5.06208153e+01
-3.14765263e+00 -9.19317216e-01 4.39401045e-02 -9.19317216e-01 -3.84944820e+00 -8.28320440e-02 4.39401045e-02 -8.28320440e-02 -3.76446109e+01
1.63651540e+01 5.82461683e-02 8.53929414e-01 5.82461683e-02 1.69639957e+01 -3.24797109e-01 8.53929414e-01 -3.24797109e-01 5.99264210e+00
2.35958693e+01 -2.47533322e+00 3.26841776e+00 -2.47533322e+00 2.61630086e+01 8.33527531e-02 3.26841776e+00 8.33527531e-02 1.92530283e+01
-1.24548268e+01 -1.99389324e-01 7.23612636e-01 -1.99389324e-01 1.02084672e+00 -6.74068034e-02 7.23612636e-01 -6.74068034e-02 -4.04020082e+01
1.23393211e+01 -2.95082279e-01 3.63934107e-01 -2.95082279e-01 1.09559644e+01 4.32325792e-01 3.63934107e-01 4.32325792e-01 -5.22888088e+00
-2.24062395e+01 -2.05276687e+00 -1.11753931e-01 -2.05276687e+00 -2.03580904e+01 6.36514997e+00 -1.11753931e-01 6.36514997e+00 -7.86609905e+01
-9.13388176e+01 -4.36698174e+00 -6.71996975e+00 -4.36698174e+00 -8.58208008e+01 4.89539909e+00 -6.71996975e+00 4.89539909e+00 -2.21557411e+02
-7.54862423e+01 9.13868284e+00 -2.81989412e+01 9.13868284e+00 -8.00840379e+01 -1.73116811e+00 -2.81989412e+01 -1.73116811e+00 -1.76504346e+02
-5.36106014e+01 -8.36052895e-02 -5.00834751e+00 -8.36052895e-02 -7.84093542e+01 -1.08317590e+00 -5.00834751e+00 -1.08317590e+00 -1.70819042e+02
-2.31152322e-01 -5.96091241e-01 -2.75117557e-01 -5.96091241e-01 3.32801146e-01 2.70647936e-01 -2.75117557e-01 2.70647936e-01 -4.89160553e-01
-4.32659566e-01 -3.94139644e-02 -9.16490108e-02 -3.94139644e-02 -1.22536570e-01 -2.25696500e-01 -9.16490108e-02 -2.25696500e-01 1.67832017e-01
6.92205518e-01 -1.66271858e-01 -1.29836336e-01 -1.66271858e-01 -1.11150112e-01 5.72664782e-01 -1.29836336e-01 5.72664782e-01 -9.68491882e-01
3.66003893e-01 -7.23168761e-01 4.20294106e-02 -7.23168761e-01 -1.83485338e-01 -5.16426951e-01 4.20294106e-02 -5.16426951e-01 -5.70068024e-01
2.33643606e-01 2.02635050e-01 3.79982144e-01 2.02635050e-01 5.65526299e-02 1.59522772e-01 3.79982144e-01 1.59522772e-01 -2.37859264e-02
-5.54982238e-02 2.52285544e-02 1.14222057e-01 2.52285544e-02 -1.53323919e-01 7.99741596e-03 1.14222057e-01 7.99741596e-03 4.75350559e-01
-5.42513132e-02 6.48143739e-02 -2.42577285e-01 6.48143739e-02 2.02747807e-01 -5.39596260e-01 -2.42577285e-01 -5.39596260e-01 1.17980897e-01
-3.10269922e-01 2.42241770e-01 -1.44222975e-01 2.42241770e-01 -1.32601187e-01 3.45871925e-01 -1.44222975e-01 3.45871925e-01 7.09148645e-01
1.48857069e+00 4.04424109e-02 1.39954016e-01 4.04424109e-02 2.26306820e+00 -1.24358945e-03 1.39954016e-01 -1.24358945e-03 -2.59647942e+01
2.24043281e+00 4.68490943e-01 1.52262081e-02 4.68490943e-01 2.21872768e+00 2.67500155e-01 1.52262081e-02 2.67500155e-01 -2.51433824e+01
6.70769677e+00 -1.80348155e-01 1.08970180e-02 -1.80348155e-01 7.29612973e+00 4.49519249e-01 1.08970180e-02 4.49519249e-01 -1.48181800e+01
2.03366071e+00 1.83560060e-01 1.20282072e-01 1.83560060e-01 3.43461442e+00 -1.93722308e-01 1.20282072e-01 -1.93722308e-01 -2.40637143e+01
6.85730886e+00 -3.01886424e-02 5.40216528e-01 -3.01886424e-02 5.89757204e+00 2.08466243e-01 5.40216528e-01 2.08466243e-01 -1.61973810e+01
3.37933183e-01 2.28868272e-01 -2.32117178e-01 2.28868272e-01 -3.34432721e-02 1.09568815e+00 -2.32117178e-01 1.09568815e+00 -2.95846629e+01
4.61616787e+00 3.57145323e-01 2.17720289e-01 3.57145323e-01 4.13584277e+00 3.94475911e-01 2.17720289e-01 3.94475911e-01 -2.05260774e+01
1.33028236e+00 3.38181783e-01 5.65870993e-01 3.38181783e-01 -4.66150045e-02 -6.19917430e-01 5.65870993e-01 -6.19917430e-01 -2.85539954e+01
7.27894449e+00 -7.92242445e-01 1.62056301e-01 -7.92242445e-01 6.58135164e+00 -7.12098563e-02 1.62056301e-01 -7.12098563e-02 -1.49891571e+01
6.03081042e+00 -4.81950457e-01 8.27822561e-01 -4.81950457e-01 6.03438827e+00 8.88135434e-01 8.27822561e-01 8.88135434e-01 -1.67326163e+01
1.06576025e-01 9.78836101e-02 -1.02699809e-02 9.78836101e-02 2.46226966e-01 3.15953546e-01 -1.02699809e-02 3.15953546e-01 -2.96737849e+01
-1.40810651e+00 5.92076178e-02 1.03817631e+00 5.92076178e-02 1.22237146e-01 1.80328000e+00 1.03817631e+00 1.80328000e+00 -3.11108498e+01
6.47070771e+00 1.25741487e-01 2.89311163e-01 1.25741487e-01 5.54823816e+00 6.41066421e-01 2.89311163e-01 6.41066421e-01 -1.69091406e+01
1.14310412e+01 -3.88450115e-02 5.32938088e-02 -3.88450115e-02 1.00378076e+01 -6.89306087e-02 5.32938088e-02 -6.89306087e-02 -6.78316179e+00
3.45353618e+00 -7.64617547e-01 3.26728370e-01 -7.64617547e-01 2.48652630e+00 8.53890274e-01 3.26728370e-01 8.53890274e-01 -2.34924891e+01
3.62476611e+00 -6.27195431e-01 5.42591660e-01 -6.27195431e-01 3.65788883e+00 7.52059212e-01 5.42591660e-01 7.52059212e-01 -2.19877177e+01
9.05666211e+00 8.36954601e-02 -1.88536179e-01 8.36954601e-02 7.17144793e+00 4.98226503e-01 -1.88536179e-01 4.98226503e-01 -1.23259822e+01
6.07027942e+00 -6.45167381e-03 -4.68394265e-01 -6.45167381e-03 4.00117469e+00 1.33968315e-01 -4.68394265e-01 1.33968315e-01 -1.90158410e+01
7.33864331e+00 -2.99280930e-01 -1.18007598e-01 -2.99280930e-01 5.71469975e+00 5.84140241e-01 -1.18007598e-01 5.84140241e-01 -1.58374471e+01
1.53287617e+01 -3.70077133e-01 3.36591186e-01 -3.70077133e-01 1.41786554e+01 -2.14022463e-01 3.36591186e-01 -2.14022463e-01 1.86436415e+00
1.23357384e+01 -1.97825085e-01 -4.70284778e-02 -1.97825085e-01 1.08149438e+01 4.56783678e-02 -4.70284778e-02 4.56783678e-02 -4.88071162e+00
1.01953242e+01 6.48573958e-02 -3.08342066e-01 6.48573958e-02 7.63833654e+00 1.06292468e-01 -3.08342066e-01 1.06292468e-01 -1.06137059e+01
1.70988656e+01 -1.58299025e-01 -1.34060974e-01 -1.58299025e-01 1.72565215e+01 -2.82409489e-01 -1.34060974e-01 -2.82409489e-01 7.13465357e+00
8.50773776e+00 -2.28165786e-01 -1.13467262e-01 -2.28165786e-01 7.21543334e+00 -2.91856582e-01 -1.13467262e-01 -2.91856582e-01 -1.29588768e+01
1.25191188e+01 -8.83180033e-02 -1.37614368e-01 -8.83180033e-02 1.18672731e+01 -2.49317765e-01 -1.37614368e-01 -2.49317765e-01 -3.50017691e+00
1.77575947e+01 3.62630882e-01 -4.28055355e-01 3.62630882e-01 1.57800937e+01 8.06308538e-02 -4.28055355e-01 8.06308538e-02 6.24164867e+00
1.86767216e+01 4.44905370e-01 3.05925198e-02 4.44905370e-01 1.95208778e+01 -6.77115012e-01 3.05925198e-02 -6.77115012e-01 1.13836718e+01
1.18308508e+01 5.44571131e-01 3.95860201e-01 5.44571131e-01 1.06928270e+01 -9.13943962e-01 3.95860201e-01 -9.13943962e-01 -5.46339273e+00
2.41025245e+00 -7.41540091e-01 1.32051083e+00 -7.41540091e-01 4.66504347e+00 1.12553351e-02 1.32051083e+00 1.12553351e-02 -2.18550355e+01
3.81424451e+00 -1.05808911e+00 8.43388695e-01 -1.05808911e+00 7.06098360e+00 -2.50415447e-01 8.43388695e-01 -2.50415447e-01 -1.79164190e+01
-5.05033827e+00 4.59987768e-01 2.20944268e+00 4.59987768e-01 -6.18903840e+00 2.08092750e+00 2.20944268e+00 2.08092750e+00 -4.16542265e+01
7.33796120e-01 -1.08877700e-01 3.27405673e-01 -1.08877700e-01 1.06331444e+00 -4.72542681e-02 3.27405673e-01 -4.72542681e-02 -2.81162591e+01
1.78401083e+01 3.02867809e+00 4.35417622e+00 3.02867809e+00 1.63252473e+01 3.62411074e+00 4.35417622e+00 3.62411074e+00 -1.17281437e-01
-7.02948430e+00 8.85216386e-01 -1.83850057e-01 8.85216386e-01 -6.75360972e+00 3.25450391e-01 -1.83850057e-01 3.25450391e-01 -4.34403906e+01
-8.37033783e+01 -7.31463774e+00 -1.84235343e+01 -7.31463774e+00 -8.47151398e+01 -2.14785991e+00 -1.84235343e+01 -2.14785991e+00 -1.90868636e+02
1.36811476e+01 1.44912161e+00 6.80064585e-01 1.44912161e+00 1.79252728e+01 1.26415384e+00 6.80064585e-01 1.26415384e+00 -7.32236726e-01
-5.34047413e+01 -1.38709235e+00 -3.99867243e+00 -1.38709235e+00 -4.86383414e+01 1.05997710e+00 -3.99867243e+00 1.05997710e+00 -1.39912663e+02
-3.81443280e+01 -2.03652523e+00 -1.79436217e+01 -2.03652523e+00 -4.87394707e+01 -1.43218731e+00 -1.79436217e+01 -1.43218731e+00 -1.00974347e+02
-3.56478677e+01 -1.75998579e+00 -1.61065742e-01 -1.75998579e+00 -3.10297360e+01 1.59703086e+00 -1.61065742e-01 1.59703086e+00 -1.01871672e+02
-4.81314945e+01 -4.65175238e-01 -4.25086308e+00 -4.65175238e-01 -4.23965292e+01 -1.74404384e+00 -4.25086308e+00 -1.74404384e+00 -1.27396368e+02
-3.08036623e+01 -2.87993312e+00 -7.71001145e-01 -2.87993312e+00 -2.15327148e+01 3.56571451e-01 -7.71001145e-01 3.56571451e-01 -8.57011070e+01
-4.83601894e+01 -4.60983980e+00 -4.87021089e+00 -4.60983980e+00 -3.65859165e+01 -3.77002970e+00 -4.87021089e+00 -3.77002970e+00 -1.19387352e+02
3.63215147e+00 1.35887431e-01 2.63804443e+00 1.35887431e-01 6.15909168e+00 5.73780347e-01 2.63804443e+00 5.73780347e-01 -1.87198363e+01
1.29411242e+01 5.15324147e-02 1.08982651e+00 5.15324147e-02 1.39039037e+01 -2.30261233e-01 1.08982651e+00 -2.30261233e-01 -8.21576715e-01
-1.05848786e+01 -4.10015507e-01 3.74103982e+00 -4.10015507e-01 -1.09000177e+01 1.69928611e+00 3.74103982e+00 1.69928611e+00 -5.22316768e+01
3.81408644e+00 4.00384814e-02 1.53495901e+00 4.00384814e-02 5.33211461e+00 1.08349572e-01 1.53495901e+00 1.08349572e-01 -2.00617223e+01
-1.13513675e+02 -1.24726965e+01 8.93857539e+00 -1.24726965e+01 -1.03695410e+02 -1.58879789e+01 8.93857539e+00 -1.58879789e+01 -2.36971481e+02
-2.09884314e+01 2.57642353e+00 2.61620488e+00 2.57642353e+00 -2.85344608e+01 -2.86203467e+00 2.61620488e+00 -2.86203467e+00 -8.44885240e+01
1.33112289e+02 1.51254559e+01 2.39183292e+01 1.51254559e+01 1.28770294e+02 2.34601536e+01 2.39183292e+01 2.34601536e+01 2.02859253e+02
8.33926773e+00 -5.58855405e+00 -8.17293525e+00 -5.58855405e+00 6.12320900e+00 -5.21021541e+00 -8.17293525e+00 -5.21021541e+00 -2.03297615e-01
2.48274343e+01 -6.08691531e-02 -2.45427367e+00 -6.08691531e-02 2.48649190e+01 2.05473091e-01 -2.45427367e+00 2.05473091e-01 2.29588148e+01
1.40935742e+01 -3.79437201e-01 1.19007886e+00 -3.79437201e-01 1.42942356e+01 6.59192167e-01 1.19007886e+00 6.59192167e-01 1.06128168e+00
2.15906586e+01 -5.89379951e-01 -2.80871719e-01 -5.89379951e-01 2.34828266e+01 1.02525425e+00 -2.80871719e-01 1.02525425e+00 1.95281219e+01
6.70186687e+00 -9.36748582e-01 2.47021405e+00 -9.36748582e-01 7.31500912e+00 1.81315356e+00 2.47021405e+00 1.81315356e+00 -1.41330638e+01
1.47807649e+01 -6.40136544e-02 7.11601488e-02 -6.40136544e-02 1.46653861e+01 2.55507521e-01 7.11601488e-02 2.55507521e-01 1.89017820e+00
2.18075211e+01 3.32455769e-01 1.07988260e+00 3.32455769e-01 2.25752340e+01 6.11946923e-02 1.07988260e+00 6.11946923e-02 1.81516427e+01
1.63863754e+00 1.94761690e+00 1.34910867e-01 1.94761690e+00 4.28243160e+00 1.18244893e+00 1.34910867e-01 1.18244893e+00 -2.33425909e+01
-6.15760944e+01 2.09768846e+00 6.05159566e+00 2.09768846e+00 -5.76606304e+01 1.99044881e+01 6.05159566e+00 1.99044881e+01 -1.37265137e+02
-1.07005138e+02 -3.84777904e+00 1.27502227e+01 -3.84777904e+00 -1.04083015e+02 1.22609725e+01 1.27502227e+01 1.22609725e+01 -2.54741676e+02
-5.94546914e+00 -3.04615912e+00 -3.06541810e+00 -3.04615912e+00 1.72716677e-01 5.14654579e+00 -3.06541810e+00 5.14654579e+00 -3.46446911e+01
4.43717289e+00 -4.32972699e-01 -3.07743132e-01 -4.32972699e-01 6.44482899e+00 7.62583196e-01 -3.07743132e-01 7.62583196e-01 -1.82365475e+01
8.17972183e-01 1.26163942e+00 -1.37466468e+00 1.26163942e+00 -1.02946281e+00 8.48122239e-01 -1.37466468e+00 8.48122239e-01 -3.01832705e+01
2.67980576e+00 -1.82657705e+00 2.25003070e+00 -1.82657705e+00 6.43899727e+00 -1.37077743e+00 2.25003070e+00 -1.37077743e+00 -1.98757801e+01
-2.30995870e+01 -3.59342424e+00 -4.41261739e+00 -3.59342424e+00 -1.80005474e+01 3.84927320e+00 -4.41261739e+00 3.84927320e+00 -7.01877346e+01
-8.99073842e+01 1.23475983e+01 7.19529589e-01 1.23475983e+01 -5.26086845e+01 -3.92224488e+01 7.19529589e-01 -3.92224488e+01 -1.26345940e+02
-1.61403726e+00 -4.16343824e+00 -6.97366267e-01 -4.16343824e+00 -7.34042454e+00 -3.27064315e+00 -6.97366267e-01 -3.27064315e+00 -3.57111212e+01
5.31102610e+00 -3.89089035e-02 1.94368437e-01 -3.89089035e-02 2.95031142e+00 -1.04010571e-03 1.94368437e-01 -1.04010571e-03 -2.09574237e+01
1.50871634e-01 1.24172115e-01 -8.27478897e-02 1.24172115e-01 -1.06132078e+00 7.27107756e-01 -8.27478897e-02 7.27107756e-01 -3.09104218e+01
8.85770448e-01 6.73445548e-01 2.23611866e-01 6.73445548e-01 -7.82746583e-01 3.70750853e-01 2.23611866e-01 3.70750853e-01 -2.98054920e+01
-5.27032197e-01 2.96912242e-01 3.81945070e-01 2.96912242e-01 -3.63963607e+00 -2.95284443e-01 3.81945070e-01 -2.95284443e-01 -3.43483930e+01
-5.72104180e+00 8.13429072e-01 -1.73073433e-01 8.13429072e-01 -3.98804712e+00 7.70227615e-01 -1.73073433e-01 7.70227615e-01 -4.04077182e+01
-6.55672413e+00 1.23805606e+00 4.79621793e-01 1.23805606e+00 -4.86572489e+00 1.52098430e+00 4.79621793e-01 1.52098430e+00 -4.20446452e+01
-6.79183596e+00 2.91314412e-01 5.82785912e-01 2.91314412e-01 -5.09371638e+00 3.91878184e-01 5.82785912e-01 3.91878184e-01 -4.28717113e+01
-1.39079475e+01 5.30227376e-01 7.99540363e-01 5.30227376e-01 -7.64229387e+00 1.81563732e+00 7.99540363e-01 1.81563732e+00 -5.25719378e+01
-4.46788633e+00 -1.28691413e+00 3.71174328e-01 -1.28691413e+00 -2.51350167e+00 5.83746547e-01 3.71174328e-01 5.83746547e-01 -3.74314334e+01
-2.10524261e+00 -7.03705909e-01 -9.98313017e-02 -7.03705909e-01 1.53819740e+00 -9.54009881e-02 -9.98313017e-02 -9.54009881e-02 -3.03659203e+01
5.24774905e+00 -5.24417706e-01 7.57897086e-03 -5.24417706e-01 7.49516112e+00 -5.94645306e-01 7.57897086e-03 -5.94645306e-01 -1.60877652e+01
9.78956366e+00 -1.02585987e+00 -1.63444787e-01 -1.02585987e+00 1.06732116e+01 -5.45062032e-03 -1.63444787e-01 -5.45062032e-03 -7.83451259e+00
6.63510323e-01 4.00003135e-01 8.64503890e-01 4.00003135e-01 5.26578712e+00 -1.34132860e+00 8.64503890e-01 -1.34132860e+00 -2.30690455e+01
-3.87449429e+00 -1.12451333e+00 1.96803421e-01 -1.12451333e+00 -1.04878008e-01 -2.08428061e+00 1.96803421e-01 -2.08428061e+00 -3.35921273e+01
-6.55841388e+00 1.33088850e+00 8.38399455e-01 1.33088850e+00 -1.02129588e+01 1.76177378e+00 8.38399455e-01 1.76177378e+00 -4.77349861e+01
-2.56386948e+00 7.63576329e-01 1.65858209e-01 7.63576329e-01 -6.15404797e+00 -9.04729394e-02 1.65858209e-01 -9.04729394e-02 -3.92522793e+01
-9.00048351e+00 2.86699735e+00 3.22083607e-01 2.86699735e+00 -9.17044640e+00 1.04254572e+00 3.22083607e-01 1.04254572e+00 -4.91963015e+01
6.32596374e+00 1.73557513e+00 -5.62877654e+00 1.73557513e+00 8.34810150e+00 -6.30712641e-01 -5.62877654e+00 -6.30712641e-01 -1.09846843e+01
1.29031932e+01 -2.52274428e-01 -2.43635020e+00 -2.52274428e-01 1.86995125e+01 -7.98704316e-02 -2.43635020e+00 -7.98704316e-02 2.91105110e+00
-1.17127573e+01 -2.88749780e+00 -7.61208378e+00 -2.88749780e+00 -4.58972232e+00 -1.90610617e+00 -7.61208378e+00 -1.90610617e+00 -4.39400431e+01
-6.95955531e+00 -6.18456976e+00 -9.37527251e+00 -6.18456976e+00 -1.02444258e+01 -2.28848688e+00 -9.37527251e+00 -2.28848688e+00 -4.28922780e+01
-2.49300746e+01 2.62166550e-01 4.42469289e+00 2.62166550e-01 -3.37501477e+01 4.88869324e-02 4.42469289e+00 4.88869324e-02 -9.20584621e+01
-2.86787539e+01 -1.39729007e+00 3.80246125e+00 -1.39729007e+00 -3.27918056e+01 -1.59476717e-01 3.80246125e+00 -1.59476717e-01 -9.60757682e+01
1.40179227e+01 2.38688954e+00 -6.68356145e-01 2.38688954e+00 9.78259706e+00 -4.36940094e+00 -6.68356145e-01 -4.36940094e+00 -2.86593775e+00
3.74475892e+01 1.58418554e+00 -2.11917681e+00 1.58418554e+00 3.25451272e+01 2.31304367e-02 -2.11917681e+00 2.31304367e-02 4.37333469e+01
8.16661987e+01 4.27274370e+00 2.65853615e+01 4.27274370e+00 9.97079773e+01 7.05921698e+00 2.65853615e+01 7.05921698e+00 1.28659470e+02
2.16105242e+01 -2.56817307e+00 -5.32379770e-01 -2.56817307e+00 1.52540689e+01 -3.09403975e+00 -5.32379770e-01 -3.09403975e+00 1.76801235e+01
-2.60686105e+01 -4.20740679e-01 6.61252141e-02 -4.20740679e-01 -2.33119357e+01 5.86181195e+00 6.61252141e-02 5.86181195e+00 -8.09902287e+01
2.83973376e+00 9.21493818e-02 -1.72278726e+00 9.21493818e-02 1.03819784e+00 2.90384481e+00 -1.72278726e+00 2.90384481e+00 -2.56702932e+01
-1.08978153e+02 -1.23218412e+01 1.19510407e+01 -1.23218412e+01 -1.60496647e+02 -1.33664362e+01 1.19510407e+01 -1.33664362e+01 -3.07857201e+02
-3.45935350e+01 3.21403286e-01 -1.87101735e+00 3.21403286e-01 -2.96856944e+01 4.89152608e+00 -1.87101735e+00 4.89152608e+00 -9.85458132e+01
-1.34918389e+01 -6.11419078e-01 4.01026662e+00 -6.11419078e-01 -1.04940056e+01 -2.78268381e-01 4.01026662e+00 -2.78268381e-01 -5.57057037e+01
2.17230611e+01 -2.55468860e-01 2.21598858e+00 -2.55468860e-01 2.02540192e+01 1.06703810e-01 2.21598858e+00 1.06703810e-01 1.52789888e+01
1.07172856e+01 4.97035101e-01 3.97217035e-01 4.97035101e-01 9.62731266e+00 -7.09918817e-01 3.97217035e-01 -7.09918817e-01 -7.87677670e+00
-3.29801521e+01 7.76338935e-01 -5.27285144e-01 7.76338935e-01 -4.15617890e+01 -3.70821047e+00 -5.27285144e-01 -3.70821047e+00 -1.08579238e+02
-1.16112523e+01 -1.43649575e+00 -3.28559986e+00 -1.43649575e+00 -2.14366653e+01 6.75830382e+00 -3.28559986e+00 6.75830382e+00 -6.10812062e+01
8.72899318e+00 -1.49556201e+00 -6.29526243e-01 -1.49556201e+00 -9.99165070e+00 6.24988931e+00 -6.29526243e-01 6.24988931e+00 -4.20043068e+01
1.29772592e+01 -1.87060934e+00 2.16134895e+00 -1.87060934e+00 2.13587060e+01 -3.98013592e+00 2.16134895e+00 -3.98013592e+00 9.03505099e+00
9.30904694e+01 -4.38405943e+00 6.81081235e-01 -4.38405943e+00 6.54647064e+01 2.21793041e+01 6.81081235e-01 2.21793041e+01 8.97618637e+01
4.16239967e+01 2.88772154e+00 -4.02678043e-01 2.88772154e+00 3.75627403e+01 5.78024435e+00 -4.02678043e-01 5.78024435e+00 5.51689034e+01
8.95164824e+00 -2.41326515e+00 -2.24926881e+00 -2.41326515e+00 1.01174417e+01 1.16275018e+00 -2.24926881e+00 1.16275018e+00 1.11549824e+01
4.79544012e+00 -4.67889320e+00 -1.85043433e+00 -4.67889320e+00 1.45944447e+01 -3.51873447e+00 -1.85043433e+00 -3.51873447e+00 7.63912567e+00
-1.17518520e+00 -9.46467340e-01 1.53747284e+00 -9.46467340e-01 1.17914641e+00 -1.09815669e+00 1.53747284e+00 -1.09815669e+00 -4.78088558e-01
-9.37959552e-01 1.70509428e-01 9.69073474e-02 1.70509428e-01 -1.10278003e-01 8.13619137e-01 9.69073474e-02 8.13619137e-01 5.73853672e-01
9.36218381e-01 -5.92590034e-01 3.60664427e-01 -5.92590034e-01 -4.70715612e-01 -1.46656132e+00 3.60664427e-01 -1.46656132e+00 -9.40026879e-01
4.20215994e-01 -1.71018934e+00 -1.28135252e+00 -1.71018934e+00 5.40079653e-01 1.32142007e+00 -1.28135252e+00 1.32142007e+00 -1.43480098e+00
7.10409389e+00 2.54293857e+00 1.59832998e+00 2.54293857e+00 -3.01221895e+00 9.83962917e-01 1.59832998e+00 9.83962917e-01 -7.11240685e-01
1.14527115e+00 -4.33721423e-01 -2.53522933e-01 -4.33721423e-01 -5.10403279e+00 8.86996031e-01 -2.53522933e-01 8.86996031e-01 -8.83535999e-01
-3.64227259e+00 9.11913335e-01 6.79637343e-02 9.11913335e-01 9.26822305e-01 -1.52787393e+00 6.79637343e-02 -1.52787393e+00 5.03074236e-01
-5.18876251e+00 -2.32729737e+00 -3.72253239e-01 -2.32729737e+00 2.45663146e+00 -5.87032715e-01 -3.72253239e-01 -5.87032715e-01 3.40833828e+00
2.18516421e+00 -3.56963128e-02 4.34730761e-03 -3.56963128e-02 -8.23662996e-01 3.59714730e-03 4.34730761e-03 3.59714730e-03 -2.83705578e+01
-6.80000544e-01 2.43359953e-01 -1.40813803e-02 2.43359953e-01 -2.27098411e+00 2.70507596e-01 -1.40813803e-02 2.70507596e-01 -3.31475163e+01
1.64245248e+00 8.75242412e-01 2.06690975e-01 8.75242412e-01 -3.18534851e-01 3.32574096e-01 2.06690975e-01 3.32574096e-01 -2.84524230e+01
8.31137180e-01 3.71329181e-01 1.27885491e-01 3.71329181e-01 -2.66796112e+00 -7.14778155e-03 1.27885491e-01 -7.14778155e-03 -3.17925484e+01
-8.81989408e+00 5.92660531e-01 -8.39127693e-03 5.92660531e-01 -6.55681229e+00 1.03670409e+00 -8.39127693e-03 1.03670409e+00 -4.64876099e+01
-6.54986729e+00 1.94527668e+00 2.50357363e-01 1.94527668e+00 -5.39515774e+00 6.39530817e-01 2.50357363e-01 6.39530817e-01 -4.26783059e+01
-1.16741499e+01 1.28278878e+00 2.91335122e-02 1.28278878e+00 -7.63322043e+00 5.46461821e-01 2.91335122e-02 5.46461821e-01 -5.06610813e+01
-2.34867284e+01 1.68551731e+00 1.19066016e+00 1.68551731e+00 -1.42410149e+01 1.97251710e+00 1.19066016e+00 1.97251710e+00 -6.96266532e+01