<VTKFile type="UnstructuredGrid" version="0.1" byte_order="LittleEndian">
<UnstructuredGrid>
<Piece NumberOfPoints="173" NumberOfCells="80">
<Points>
<DataArray type="Float64" NumberOfComponents="3" format="ascii">
 0.00000000e+00  0.00000000e+00  0.00000000e+00
 1.03715670e+00  0.00000000e+00  0.00000000e+00
 1.03985894e+00  1.06945813e+00  0.00000000e+00
 0.00000000e+00  1.06673276e+00  0.00000000e+00
 0.00000000e+00  0.00000000e+00  9.18109775e-01
 1.03664029e+00  0.00000000e+00  9.14838314e-01
 1.03742528e+00  1.06456912e+00  9.18928504e-01
 0.00000000e+00  1.06361008e+00  9.20995951e-01
 2.07856107e+00  0.00000000e+00  0.00000000e+00
 2.07954884e+00  1.07497346e+00  0.00000000e+00
 2.07664084e+00  0.00000000e+00  9.08448577e-01
 2.07876277e+00  1.06775856e+00  9.13294077e-01
 3.12119269e+00  0.00000000e+00  0.00000000e+00
 3.12525678e+00  1.08288586e+00  0.00000000e+00
 3.12637091e+00  0.00000000e+00  9.02412832e-01
 3.12150216e+00  1.07077873e+00  9.03812170e-01
 4.17837381e+00  0.00000000e+00  0.00000000e+00
 4.16753292e+00  1.08888173e+00  0.00000000e+00
 4.18221045e+00  0.00000000e+00  8.94418776e-01
 4.17007828e+00  1.07147455e+00  8.97820294e-01
 5.23501635e+00  0.00000000e+00  0.00000000e+00
 5.22102404e+00  1.09545028e+00  0.00000000e+00
 5.24010754e+00  0.00000000e+00  8.85939419e-01
 5.22990417e+00  1.07436526e+00  8.91875446e-01
 6.29855967e+00  0.00000000e+00  0.00000000e+00
 6.26117897e+00  1.11948371e+00  0.00000000e+00
 6.29499626e+00  0.00000000e+00  8.83917987e-01
 6.28579187e+00  1.09607089e+00  8.80404353e-01
 1.04359710e+00  2.12355494e+00  0.00000000e+00
 0.00000000e+00  2.12148142e+00  0.00000000e+00
 1.03993595e+00  2.11961031e+00  9.29590464e-01
 0.00000000e+00  2.11633062e+00  9.30518329e-01
 2.08685851e+00  2.13466740e+00  0.00000000e+00
 2.07949877e+00  2.12581682e+00  9.28755403e-01
 3.12183547e+00  2.14420080e+00  0.00000000e+00
 3.11620593e+00  2.13322163e+00  9.36592519e-01
 4.15118694e+00  2.16272593e+00  0.00000000e+00
 4.15398312e+00  2.13357162e+00  9.33728814e-01
 5.17079067e+00  2.16506147e+00  0.00000000e+00
 5.18509674e+00  2.13846207e+00  9.37775791e-01
 6.19925165e+00  2.19796634e+00  0.00000000e+00
 6.22333622e+00  2.16973305e+00  9.37706232e-01
 1.04657698e+00  3.15671754e+00  0.00000000e+00
 0.00000000e+00  3.15388274e+00  0.00000000e+00
 1.04179347e+00  3.15776491e+00  9.42941964e-01
 0.00000000e+00  3.15610576e+00  9.43633676e-01
 2.09308481e+00  3.15913534e+00  0.00000000e+00
 2.08434343e+00  3.16033983e+00  9.55720901e-01
 3.11849666e+00  3.16743469e+00  0.00000000e+00
 3.11305046e+00  3.16477799e+00  9.86309171e-01
 4.12411165e+00  3.17422438e+00  0.00000000e+00
 4.11695051e+00  3.16402388e+00  1.00506973e+00
 5.13801718e+00  3.16793442e+00  0.00000000e+00
 5.13937521e+00  3.15145564e+00  1.01271892e+00
 6.14048767e+00  3.20413637e+00  0.00000000e+00
 6.14594698e+00  3.20061421e+00  1.00410247e+00
 1.04858887e+00  4.17460442e+00  0.00000000e+00
 0.00000000e+00  4.17817688e+00  0.00000000e+00
 1.04239583e+00  4.17687464e+00  9.50524449e-01
 0.00000000e+00  4.18134832e+00  9.48567629e-01
 2.09191108e+00  4.17157602e+00  0.00000000e+00
 2.08231759e+00  4.16853809e+00  9.65630710e-01
 3.11364818e+00  4.16757822e+00  0.00000000e+00
 3.10613132e+00  4.16614628e+00  9.93262649e-01
 4.11092615e+00  4.17290401e+00  0.00000000e+00
 4.11052990e+00  4.17289066e+00  1.00000191e+00
 6.11083221e+00  4.17788696e+00  0.00000000e+00
 5.11087894e+00  4.17520761e+00  0.00000000e+00
 6.11094809e+00  4.17790461e+00  9.99726295e-01
 5.11095858e+00  4.17515898e+00  1.00001335e+00
 1.04647398e+00  5.19185877e+00  0.00000000e+00
 0.00000000e+00  5.20010185e+00  0.00000000e+00
 1.04349124e+00  5.19800901e+00  9.48393464e-01
 0.00000000e+00  5.20129013e+00  9.42109168e-01
 2.08989429e+00  5.17783117e+00  0.00000000e+00
 2.07660770e+00  5.18061781e+00  9.60756600e-01
 3.10617661e+00  5.16865826e+00  0.00000000e+00
 3.10051298e+00  5.17154932e+00  9.90711868e-01
 4.10855150e+00  5.17299080e+00  0.00000000e+00
 4.10834408e+00  5.17300844e+00  1.00025439e+00
 5.10841608e+00  5.17531061e+00  0.00000000e+00
 5.10851383e+00  5.17528725e+00  1.00002682e+00
 6.10853481e+00  5.17763901e+00  0.00000000e+00
 6.10855341e+00  5.17757320e+00  1.00000787e+00
 1.05238628e+00  6.22173643e+00  0.00000000e+00
 0.00000000e+00  6.22549248e+00  0.00000000e+00
 1.04697156e+00  6.22220421e+00  9.37669277e-01
 0.00000000e+00  6.23118877e+00  9.31954980e-01
 2.09718728e+00  6.19671202e+00  0.00000000e+00
 2.07895708e+00  6.21268940e+00  9.43475246e-01
 3.10977030e+00  6.17692232e+00  0.00000000e+00
 3.10448909e+00  6.19055557e+00  9.76104736e-01
 4.10725927e+00  6.17360497e+00  0.00000000e+00
 4.10660315e+00  6.17359161e+00  1.00053561e+00
 5.10626125e+00  6.17516232e+00  0.00000000e+00
 5.10637569e+00  6.17525101e+00  9.99967098e-01
 6.10622358e+00  6.17759323e+00  0.00000000e+00
 6.10625219e+00  6.17756271e+00  9.99995351e-01
 0.00000000e+00  0.00000000e+00  1.84313798e+00
 1.03749490e+00  0.00000000e+00  1.83646321e+00
 1.03674793e+00  1.05403590e+00  1.84334421e+00
 0.00000000e+00  1.05485642e+00  1.84452868e+00
 2.08362103e+00  0.00000000e+00  1.82761443e+00
 2.07484126e+00  1.04806185e+00  1.83143187e+00
 3.13009644e+00  0.00000000e+00  1.81562304e+00
 3.13020921e+00  1.04743540e+00  1.81541765e+00
 4.19088411e+00  0.00000000e+00  1.79771328e+00
 4.18597269e+00  1.04808199e+00  1.80946076e+00
 5.25325108e+00  0.00000000e+00  1.78489745e+00
 5.24700308e+00  1.05008602e+00  1.79841089e+00
 6.30292702e+00  0.00000000e+00  1.77862000e+00
 6.31385946e+00  1.05620360e+00  1.78786147e+00
 1.03132713e+00  2.10621977e+00  1.85912037e+00
 0.00000000e+00  2.11197901e+00  1.86428118e+00
 2.07153988e+00  2.10522437e+00  1.85322595e+00
 3.11688972e+00  2.10956812e+00  1.84918690e+00
 4.17705202e+00  2.12287569e+00  1.83166218e+00
 5.24018717e+00  2.12498879e+00  1.83654928e+00
 6.29600048e+00  2.13379908e+00  1.82435536e+00
 1.02723336e+00  3.15382671e+00  1.88464475e+00
 0.00000000e+00  3.15614748e+00  1.88945889e+00
 2.06040692e+00  3.15510440e+00  1.89810801e+00
 3.05452943e+00  3.13619828e+00  2.00846958e+00
 1.02957165e+00  4.19209290e+00  1.90685952e+00
 0.00000000e+00  4.18740368e+00  1.89874434e+00
 2.06456017e+00  4.17630768e+00  1.93305492e+00
 3.08323908e+00  4.14935017e+00  1.97081566e+00
 1.03618097e+00  5.20758152e+00  1.89981294e+00
 0.00000000e+00  5.21375132e+00  1.89345133e+00
 2.06073999e+00  5.19786501e+00  1.91930628e+00
 3.10420179e+00  5.18315125e+00  1.93677568e+00
 1.03128958e+00  6.24359035e+00  1.87328064e+00
 0.00000000e+00  6.24196291e+00  1.86939573e+00
 2.06173921e+00  6.24961185e+00  1.88221884e+00
 3.11309743e+00  6.23966742e+00  1.88436162e+00
 5.10855293e+00  5.17533445e+00  2.00003314e+00
 6.10855198e+00  5.17758703e+00  2.00003052e+00
 6.10629702e+00  6.17759418e+00  1.99998379e+00
 5.10627079e+00  6.17534590e+00  1.99996662e+00
 0.00000000e+00  0.00000000e+00  2.76568532e+00
 1.04436302e+00  0.00000000e+00  2.76372194e+00
 1.04666305e+00  1.04845285e+00  2.76959276e+00
 0.00000000e+00  1.04672503e+00  2.77448511e+00
 2.09826827e+00  0.00000000e+00  2.75063324e+00
 2.08754444e+00  1.04097080e+00  2.75925398e+00
 3.14628053e+00  0.00000000e+00  2.73619151e+00
 3.14722729e+00  1.03632677e+00  2.73953605e+00
 4.20408106e+00  0.00000000e+00  2.72322083e+00
 4.20673370e+00  1.03799868e+00  2.71869040e+00
 5.26444912e+00  0.00000000e+00  2.70719719e+00
 5.26528311e+00  1.04068124e+00  2.70968819e+00
 6.31998539e+00  0.00000000e+00  2.70142436e+00
 6.32001114e+00  1.04075432e+00  2.70376563e+00
 1.03250206e+00  2.09131432e+00  2.78954411e+00
 0.00000000e+00  2.10419559e+00  2.79264331e+00
 2.08633232e+00  2.09247756e+00  2.76843929e+00
 3.13781381e+00  2.09870863e+00  2.72893763e+00
 4.20323324e+00  2.10941410e+00  2.71918058e+00
 5.26202202e+00  2.10232067e+00  2.72053456e+00
 6.31252956e+00  2.10710287e+00  2.71555448e+00
 1.02805912e+00  3.15690804e+00  2.82978725e+00
 0.00000000e+00  3.15387011e+00  2.82583857e+00
 2.07736444e+00  3.13763833e+00  2.80036855e+00
 1.02812815e+00  4.19360828e+00  2.85775590e+00
 0.00000000e+00  4.20081234e+00  2.85220194e+00
 2.06788969e+00  4.19423342e+00  2.88869023e+00
 1.02943623e+00  5.23943758e+00  2.84690690e+00
 0.00000000e+00  5.23371983e+00  2.84344554e+00
 2.06559491e+00  5.23659134e+00  2.85450292e+00
 3.08024740e+00  4.23582125e+00  3.01747465e+00
 3.10222363e+00  5.22851419e+00  2.83524418e+00
 1.03215814e+00  6.27474022e+00  2.81611252e+00
 0.00000000e+00  6.27787638e+00  2.80554891e+00
</DataArray>
</Points>
<PointData Tensors="Stress_Components,Plastic_strain_components" Vevtors="Spatial_displacement,Reaction_force" Scalars="Equivalent_plastic_strain,Stress_Mises,Stress_Max_Principal,Stress_Mid_Principal,Stress_Min_Principal,Stress_Pressure,Stress_Tresca,Stress_Third_Invariant,Plastic_strain_Max_Principal,Plastic_strain_Min_Principal">
<DataArray type="Float32" Name="Stress_Components" NumberOfComponents="9" format="ascii">
-3.28211761e+00 -8.89113359e-03 -1.22416932e-02 -8.89113359e-03 6.42807007e-01 6.45228056e-03 -1.22416932e-02 6.45228056e-03 -3.26042900e+01
-8.19203177e+00 2.17685193e-01 -3.97314481e-03 2.17685193e-01 -3.55849230e+00 -2.42066517e-01 -3.97314481e-03 -2.42066517e-01 -4.24125385e+01
-4.17956305e+00 4.27632704e-01 -3.90251633e-01 4.27632704e-01 -1.27919796e+00 -3.22293989e-01 -3.90251633e-01 -3.22293989e-01 -3.57428880e+01
-4.44695938e+00 1.06126759e-01 -3.81225824e-01 1.06126759e-01 -1.80898380e+00 1.63865308e-02 -3.81225824e-01 1.63865308e-02 -3.66502542e+01
-1.40513611e+00 -5.34780510e-03 -5.24174850e-02 -5.34780510e-03 2.20915376e+00 -2.65395105e-01 -5.24174850e-02 -2.65395105e-01 -2.89052629e+01
-5.58087552e+00 1.21378511e-01 3.83611802e-01 1.21378511e-01 -1.46546972e+00 -5.59997384e-01 3.83611802e-01 -5.59997384e-01 -3.73503528e+01
-2.83963539e+00 3.10586183e-01 -1.13497926e-01 3.10586183e-01 1.53853893e-02 -3.55794383e-01 -1.13497926e-01 -3.55794383e-01 -3.29016137e+01
-4.07633591e+00 1.03888892e-01 -2.16496353e-01 1.03888892e-01 -1.23990309e+00 1.46794451e-01 -2.16496353e-01 1.46794451e-01 -3.56045268e+01
-1.10374475e+01 1.57664843e-01 -1.64493583e-02 1.57664843e-01 -5.70884871e+00 -4.43934515e-01 -1.64493583e-02 -4.43934515e-01 -4.77504463e+01
-1.23399532e+01 9.67867073e-01 -6.65444545e-01 9.67867073e-01 -7.85423112e+00 -4.45301509e-01 -6.65444545e-01 -4.45301509e-01 -5.15306576e+01
-6.76533103e+00 1.47991024e-01 4.05869495e-01 1.47991024e-01 -3.20549497e+00 -1.30754050e-01 4.05869495e-01 -1.30754050e-01 -4.06378255e+01
-7.18968982e+00 2.51891041e-01 -6.88610809e-01 2.51891041e-01 -3.44536380e+00 -1.16994720e+00 -6.88610809e-01 -1.16994720e+00 -4.12176603e+01
-1.47953043e+01 5.60396343e-01 -6.98914276e-02 5.60396343e-01 -9.29530263e+00 4.01126415e-01 -6.98914276e-02 4.01126415e-01 -5.57373104e+01
-1.95091438e+01 6.43120229e-01 -1.35158467e+00 6.43120229e-01 -1.32502667e+01 -1.11575395e+00 -1.35158467e+00 -1.11575395e+00 -6.49922435e+01
-6.69436407e+00 -4.88656297e-01 -5.35318553e-01 -4.88656297e-01 -4.49476284e+00 -1.36623276e-01 -5.35318553e-01 -1.36623276e-01 -4.20591052e+01
-1.18392410e+01 -4.39043781e-01 -2.21652661e-01 -4.39043781e-01 -7.15926303e+00 -9.04170843e-01 -2.21652661e-01 -9.04170843e-01 -5.01727691e+01
-1.87026196e+01 -1.40632039e+00 -1.02039941e-01 -1.40632039e+00 -1.39368348e+01 1.82629135e-01 -1.02039941e-01 1.82629135e-01 -6.50458107e+01
-2.80719074e+01 -1.20003249e+00 -2.49504097e+00 -1.20003249e+00 -1.68760736e+01 -1.38839915e-01 -2.49504097e+00 -1.38839915e-01 -7.73673573e+01
-8.49657369e+00 -1.38954228e+00 -2.53840471e-01 -1.38954228e+00 -7.03831482e+00 -1.17600123e-01 -2.53840471e-01 -1.17600123e-01 -4.67380242e+01
-1.06097937e+00 -1.02915585e+00 -4.52488402e-01 -1.02915585e+00 5.36716700e-01 2.41184779e-01 -4.52488402e-01 2.41184779e-01 -3.05007377e+01
-1.97250789e+01 -6.07479878e-01 -2.22336128e-01 -6.07479878e-01 -1.28507140e+01 1.08413249e+00 -2.22336128e-01 1.08413249e+00 -6.47663593e+01
-1.29612118e+01 -3.11755940e+00 -2.26321985e+00 -3.11755940e+00 -6.73399234e+00 6.07727364e-01 -2.26321985e+00 6.07727364e-01 -5.00009093e+01
-2.85463607e+00 -5.70979334e-01 -2.85290855e-01 -5.70979334e-01 -1.40098941e+00 1.19374855e+00 -2.85290855e-01 1.19374855e+00 -3.45256262e+01
2.65517950e+00 -1.87723418e+00 -5.27586471e-02 -1.87723418e+00 3.18758039e+00 3.04582895e-01 -5.27586471e-02 3.04582895e-01 -2.34543060e+01
-4.78047867e+01 -4.70948839e+00 -2.15011775e-01 -4.70948839e+00 -3.38067818e+01 5.49237669e-01 -2.15011775e-01 5.49237669e-01 -1.16642151e+02
-5.88745499e+01 -5.12128651e+00 -3.17521966e+00 -5.12128651e+00 -3.47128334e+01 5.05155587e+00 -3.17521966e+00 5.05155587e+00 -1.26253563e+02
-2.63317206e+01 -6.11788943e-01 -1.71420264e+00 -6.11788943e-01 -1.75639938e+01 2.54619539e+00 -1.71420264e+00 2.54619539e+00 -7.65485249e+01
-2.41572051e+01 -1.85849908e+00 -8.76140233e-01 -1.85849908e+00 -1.74136560e+01 2.86600342e+00 -8.76140233e-01 2.86600342e+00 -7.35634740e+01
-1.17028022e+00 8.39313775e-01 -5.25192212e-01 8.39313775e-01 -3.14484382e+00 -3.95464879e-01 -5.25192212e-01 -3.95464879e-01 -3.45193186e+01
6.54201031e-01 1.78347170e-01 -5.79301745e-01 1.78347170e-01 -1.12817335e+00 5.53131243e-03 -5.79301745e-01 5.53131243e-03 -3.04057722e+01
-1.26664486e+00 5.48434082e-01 9.67788156e-02 5.48434082e-01 -1.26733044e+00 -7.78276242e-01 9.67788156e-02 -7.78276242e-01 -3.26970050e+01
2.20116782e+00 2.34715153e-01 8.79615666e-01 2.34715153e-01 1.94600558e+00 3.05017177e-03 8.79615666e-01 3.05017177e-03 -2.54865683e+01
-5.09690082e+00 2.39994543e+00 -8.96686330e-01 2.39994543e+00 -7.51937056e+00 -1.20084069e+00 -8.96686330e-01 -1.20084069e+00 -4.31010418e+01
-3.41143587e+00 1.77973079e+00 1.68723745e+00 1.77973079e+00 -3.89062972e+00 -4.10834759e-01 1.68723745e+00 -4.10834759e-01 -3.70826072e+01
1.73774934e+01 1.39186940e+00 -1.44580936e+00 1.39186940e+00 1.58801268e+01 -6.24952406e-01 -1.44580936e+00 -6.24952406e-01 5.00237799e+00
4.68193695e+00 1.17954731e+00 3.88837600e+00 1.17954731e+00 5.87939215e+00 -1.85490402e-01 3.88837600e+00 -1.85490402e-01 -1.87656261e+01
2.62445151e+01 -1.28600276e+00 -4.63547097e+00 -1.28600276e+00 2.03747592e+01 -2.22041273e-01 -4.63547097e+00 -2.22041273e-01 1.95811477e+01
-1.24974722e+01 -6.58783089e+00 8.48874190e+00 -6.58783089e+00 -9.12587865e+00 7.06946737e-01 8.48874190e+00 7.06946737e-01 -4.80280089e+01
2.64566544e+01 4.77394253e-01 -4.19693606e+00 4.77394253e-01 2.39639076e+01 5.70091221e-01 -4.19693606e+00 5.70091221e-01 2.26851106e+01
-3.99914726e+00 -4.91145777e+00 9.41364883e+00 -4.91145777e+00 -8.53653129e+00 2.87026253e+00 9.41364883e+00 2.87026253e+00 -3.57061450e+01
1.43084536e+01 -5.17283833e+00 -6.67194992e+00 -5.17283833e+00 3.52678871e+00 2.66295195e+00 -6.67194992e+00 2.66295195e+00 -9.22130966e+00
-3.73236987e+01 -1.11252863e+01 1.14668049e+01 -1.11252863e+01 -2.88512828e+01 6.04797681e+00 1.14668049e+01 6.04797681e+00 -9.19884796e+01
1.04476810e+00 6.19692229e-01 2.41069153e-01 6.19692229e-01 -7.48675740e+00 -7.83171624e-01 2.41069153e-01 -7.83171624e-01 -3.57838591e+01
6.36178422e+00 2.63303548e-01 3.13064002e-01 2.63303548e-01 1.60750532e+00 -3.36088706e-03 3.13064002e-01 -3.36088706e-03 -2.09446297e+01
3.13018130e+00 1.41745581e-01 1.09677830e+00 1.41745581e-01 -3.31869748e+00 -6.33277435e-01 1.09677830e+00 -6.33277435e-01 -2.94303912e+01
7.10182130e+00 1.14782582e-01 8.84059623e-01 1.14782582e-01 4.29924631e+00 -3.75652827e-01 8.84059623e-01 -3.75652827e-01 -1.74145952e+01
1.82673283e+01 -1.91733886e-01 -8.71036751e-02 -1.91733886e-01 1.16167375e+01 -1.16983228e+00 -8.71036751e-02 -1.16983228e+00 2.86791086e+00
1.37319745e+01 -1.73912365e-02 1.19497570e+00 -1.73912365e-02 4.37711734e+00 1.45858181e+00 1.19497570e+00 1.45858181e+00 -9.79551816e+00
2.91394401e+01 -4.10194926e-01 1.20466784e-01 -4.10194926e-01 2.61251013e+01 -1.84905450e+00 1.20466784e-01 -1.84905450e+00 2.85619922e+01
3.00975499e+01 -1.36133898e+00 -3.15343648e-01 -1.36133898e+00 2.65621237e+01 2.93654795e+00 -3.15343648e-01 2.93654795e+00 3.19088741e+01
2.49017064e+01 -2.68604212e+00 4.13850149e-02 -2.68604212e+00 2.28516552e+01 -2.97659789e+00 4.13850149e-02 -2.97659789e+00 3.13597905e+01
3.12737166e+01 8.43946139e-01 -9.72142188e+00 8.43946139e-01 3.24825800e+01 4.18748907e+00 -9.72142188e+00 4.18748907e+00 4.98392829e+01
3.53126863e+01 -5.06995817e-01 3.44720813e+00 -5.06995817e-01 3.71972262e+01 -4.80178547e-01 3.44720813e+00 -4.80178547e-01 3.76254152e+01
2.84185848e+01 4.71640301e+00 -8.98159933e+00 4.71640301e+00 3.61438681e+01 -1.33850209e+00 -8.98159933e+00 -1.33850209e+00 4.57290117e+01
1.73947190e+01 3.80702651e+00 -1.84562683e-01 3.80702651e+00 6.25018120e+00 1.27670097e+00 -1.84562683e-01 1.27670097e+00 3.05314851e+01
4.08460197e+01 9.65399194e+00 -5.14322037e+00 9.65399194e+00 2.81182325e+01 -2.08226150e+00 -5.14322037e+00 -2.08226150e+00 5.59418221e+01
3.47413409e+00 -7.77932391e-01 1.78349186e-01 -7.77932391e-01 -7.28520343e+00 -1.16262592e+00 1.78349186e-01 -1.16262592e+00 -3.21865749e+01
2.67430055e+00 -7.74829596e-01 3.46606627e-01 -7.74829596e-01 -5.32163906e+00 -4.45710011e-02 3.46606627e-01 -4.45710011e-02 -3.17661066e+01
7.55985865e+00 -1.11517316e+00 1.54606858e+00 -1.11517316e+00 8.07619296e-01 -1.58330612e-03 1.54606858e+00 -1.58330612e-03 -1.96368468e+01
5.15781236e+00 -7.34869227e-01 3.49426188e-01 -7.34869227e-01 -1.24849945e-01 -9.52785388e-02 3.49426188e-01 -9.52785388e-02 -2.40295129e+01
1.33677917e+01 -2.34571751e+00 -9.25010640e-01 -2.34571751e+00 5.88503909e+00 -2.19330046e+00 -9.25010640e-01 -2.19330046e+00 -7.30930614e+00
1.70927830e+01 -1.20579761e+00 -6.68904595e-01 -1.20579761e+00 1.17872623e+01 2.79486331e+00 -6.68904595e-01 2.79486331e+00 3.65768296e+00
1.97708165e+01 -4.25133497e-01 3.85137197e-01 -4.25133497e-01 2.59165099e+01 -3.67655918e+00 3.85137197e-01 -3.67655918e+00 2.06986821e+01
2.83521240e+01 5.16251485e-01 -2.85898263e-01 5.16251485e-01 3.15093866e+01 -2.07158961e+00 -2.85898263e-01 -2.07158961e+00 3.21040834e+01
1.71441623e+01 1.71336516e+00 5.11080896e-01 1.71336516e+00 2.30822531e+01 -2.38145863e+00 5.11080896e-01 -2.38145863e+00 2.19907249e+01
1.38623021e+01 3.23492293e+00 -2.66580914e-01 3.23492293e+00 8.38328725e+00 2.64258321e+00 -2.66580914e-01 2.64258321e+00 1.70160155e+00
-7.60817015e+00 -6.68516493e+00 1.79643288e-01 -6.68516493e+00 -2.75871406e+01 1.29309148e+00 1.79643288e-01 1.29309148e+00 -1.24759579e+01
9.87242587e+00 1.23913089e+00 -9.18379962e-01 1.23913089e+00 1.59479983e+01 1.15432784e+00 -9.18379962e-01 1.15432784e+00 1.20978878e+01
1.19758224e+00 -5.51980019e+00 1.45408285e+00 -5.51980019e+00 -1.97161980e+01 -1.85023878e+00 1.45408285e+00 -1.85023878e+00 -4.43164420e+00
3.09140174e+00 -2.52382596e+00 -2.44065265e+00 -2.52382596e+00 8.77701267e+00 -8.82746354e-01 -2.44065265e+00 -8.82746354e-01 -2.61755588e+00
3.57639283e+00 -2.07237766e+00 1.15635020e+00 -2.07237766e+00 -5.38159961e+00 -3.62856241e-01 1.15635020e+00 -3.62856241e-01 -3.01762385e+01
1.82098269e+00 -1.47840661e+00 4.01883669e-01 -1.47840661e+00 -6.15154958e+00 -8.25009961e-03 4.01883669e-01 -8.25009961e-03 -3.35366588e+01
9.24430114e+00 -1.38268009e+00 6.83711216e-01 -1.38268009e+00 5.05908859e+00 3.77964173e-01 6.83711216e-01 3.77964173e-01 -1.38013085e+01
4.65638351e+00 -6.33977205e-01 -1.06138149e-02 -6.33977205e-01 -1.62422526e+00 7.61181466e-01 -1.06138149e-02 7.61181466e-01 -2.58724249e+01
1.22422612e+01 -2.46701647e+00 4.71859785e-01 -2.46701647e+00 6.38897192e+00 -2.68592600e+00 4.71859785e-01 -2.68592600e+00 -8.03125185e+00
9.50066596e+00 -2.31053805e+00 -7.08875906e-01 -2.31053805e+00 5.77362510e+00 2.35156470e+00 -7.08875906e-01 2.35156470e+00 -1.17943721e+01
1.52839302e+01 2.20626237e+00 2.52394942e+00 2.20626237e+00 1.55495611e+01 -1.62179962e+00 2.52394942e+00 -1.62179962e+00 3.78654242e+00
1.40853500e+01 -1.84897004e+00 -1.28165878e+00 -1.84897004e+00 1.17626473e+01 3.31957450e+00 -1.28165878e+00 3.31957450e+00 3.32670848e-01
1.48419006e+01 3.21585643e+00 -1.20716788e-01 3.21585643e+00 1.83194363e+01 -1.93309814e+00 -1.20716788e-01 -1.93309814e+00 2.04108542e+01
1.05360127e+01 2.55976617e+00 3.04230014e+00 2.55976617e+00 5.28610921e+00 1.83254838e-01 3.04230014e+00 1.83254838e-01 4.88164562e+00
1.46198660e-01 8.02968025e-01 -4.14609104e-01 8.02968025e-01 2.29215384e+00 1.79776680e+00 -4.14609104e-01 1.79776680e+00 4.15873230e+00
3.37636082e+00 5.50357199e-01 -7.53682846e-01 5.50357199e-01 8.58766294e-01 -6.63851309e-01 -7.53682846e-01 -6.63851309e-01 2.96120536e-01
2.93130183e+00 5.09242237e-01 -1.37024158e+00 5.09242237e-01 -8.14301825e+00 3.84480387e-01 -1.37024158e+00 3.84480387e-01 -1.79913539e+00
9.20118779e-01 -9.59217161e-01 9.59495984e-01 -9.59217161e-01 -5.62645384e+00 -1.57598257e-01 9.59495984e-01 -1.57598257e-01 -3.11336651e-01
-1.80025318e+01 -2.49184741e+00 1.01488081e+00 -2.49184741e+00 -2.80584488e+01 -1.31694758e+00 1.01488081e+00 -1.31694758e+00 -7.84984913e+01
-1.56018496e+01 -1.04357600e+00 1.53193521e+00 -1.04357600e+00 -2.92499619e+01 -3.41196507e-02 1.53193521e+00 -3.41196507e-02 -7.67589569e+01
-7.80722699e+00 -1.35485458e+00 1.84153616e-02 -1.35485458e+00 -1.45351173e+01 -9.76540048e-01 1.84153616e-02 -9.76540048e-01 -5.34665308e+01
-1.63967028e+01 -1.52099895e+00 2.29610205e-02 -1.52099895e+00 -2.57197361e+01 8.73845011e-01 2.29610205e-02 8.73845011e-01 -7.46977615e+01
-2.69994411e+01 -5.98709488e+00 5.73591423e+00 -5.98709488e+00 -3.57150545e+01 -5.47160292e+00 5.73591423e+00 -5.47160292e+00 -9.47195702e+01
-1.41069629e+01 -3.88113599e+00 5.83645195e-01 -3.88113599e+00 -1.37328206e+01 3.05465698e-01 5.83645195e-01 3.05465698e-01 -5.94512706e+01
7.30282211e+00 1.15935802e+00 4.87608737e+00 1.15935802e+00 1.96835785e+01 -2.96695471e+00 4.87608737e+00 -2.96695471e+00 2.59792328e-01
-3.61478033e+01 -8.62497020e+00 9.25592959e-01 -8.62497020e+00 -3.08045642e+01 1.17851524e+01 9.25592959e-01 1.17851524e+01 -9.75880998e+01
1.46434808e+01 5.14364161e-01 -7.97452569e-01 5.14364161e-01 2.57731891e+01 -3.93374681e+00 -7.97452569e-01 -3.93374681e+00 2.91276224e+01
-1.37287221e+01 -9.46898955e+00 1.51263721e+00 -9.46898955e+00 -1.23636870e+01 7.64495754e+00 1.51263721e+00 7.64495754e+00 -1.35796161e+01
-5.60956766e+00 -8.88922453e-01 1.39426783e+00 -8.88922453e-01 2.19878602e+00 1.90820771e+00 1.39426783e+00 1.90820771e+00 5.53496046e+00
-3.81475417e+00 -4.38008467e-01 7.86236207e-01 -4.38008467e-01 2.98023036e+00 -2.75407437e+00 7.86236207e-01 -2.75407437e+00 3.59446983e+00
-1.87842298e+00 2.48681593e+00 -6.32592440e-01 2.48681593e+00 -2.20322323e+00 5.99499345e-01 -6.32592440e-01 5.99499345e-01 -6.11386299e-01
-4.08014691e+00 2.17152156e-01 -2.52957195e-01 2.17152156e-01 6.18205488e-01 1.35229188e+00 -2.52957195e-01 1.35229188e+00 5.99447958e-01
-1.96055198e+00 1.74567383e-03 -1.25138685e-01 1.74567383e-03 1.08565426e+00 -4.47802365e-01 -1.25138685e-01 -4.47802365e-01 -3.08019600e+01
-6.47663526e-01 7.12006707e-02 4.97790337e-01 7.12006707e-02 1.31408578e+00 -4.21096439e-01 4.97790337e-01 -4.21096439e-01 -2.91957045e+01
2.14632281e+00 -2.56866956e-01 4.15850570e-02 -2.56866956e-01 4.36739721e+00 1.74340634e-01 4.15850570e-02 1.74340634e-01 -2.28446780e+01
-2.47889400e+00 -1.24623566e-02 -1.31633766e-01 -1.24623566e-02 8.39697361e-01 1.43648906e-01 -1.31633766e-01 1.43648906e-01 -3.15747204e+01
4.72451745e+00 -7.94498868e-01 5.40620692e-01 -7.94498868e-01 4.80611080e+00 3.07515409e-01 5.40620692e-01 3.07515409e-01 -1.96731563e+01
3.84698945e+00 -4.48880864e-01 -3.23587762e-01 -4.48880864e-01 5.02462152e+00 -8.38836992e-01 -3.23587762e-01 -8.38836992e-01 -2.02185892e+01
3.63553536e+00 -1.89612629e-02 -2.58757874e-01 -1.89612629e-02 3.23203003e+00 3.19121461e-02 -2.58757874e-01 3.19121461e-02 -2.25678697e+01
6.49999899e+00 -3.53291686e-01 -5.58862302e-01 -3.53291686e-01 5.93562847e+00 -4.50577377e-01 -5.58862302e-01 -4.50577377e-01 -1.65104440e+01
4.17670643e+00 -3.04281846e-01 1.52346041e-01 -3.04281846e-01 2.39047438e+00 -2.68661020e-01 1.52346041e-01 -2.68661020e-01 -2.28707493e+01
4.58201623e+00 -5.68093354e-01 -2.30394740e-01 -5.68093354e-01 4.35030413e+00 7.61338734e-01 -2.30394740e-01 7.61338734e-01 -2.02469786e+01
9.68891180e+00 -5.14155842e-01 1.45979233e-01 -5.14155842e-01 8.45493567e+00 5.26901849e-01 1.45979233e-01 5.26901849e-01 -1.03170224e+01
4.52381057e+00 -3.93916354e-01 1.06111338e-01 -3.93916354e-01 3.45568742e+00 6.07526604e-01 1.06111338e-01 6.07526604e-01 -2.13645297e+01
8.61767650e+00 4.84707139e-01 -1.48315877e-01 4.84707139e-01 9.38436890e+00 1.61917639e+00 -1.48315877e-01 1.61917639e+00 -1.03610125e+01
5.15173936e+00 2.81670064e-01 -8.80319238e-01 2.81670064e-01 4.31945467e+00 8.60571468e-01 -8.80319238e-01 8.60571468e-01 -1.96311404e+01
5.17126358e+00 -5.02562565e-01 3.69183056e-01 -5.02562565e-01 6.70963272e+00 -8.55049855e-01 3.69183056e-01 -8.55049855e-01 -1.70253468e+01
-1.31050062e+00 -5.76000713e-01 1.48413362e+00 -5.76000713e-01 1.38559747e+00 -4.42418093e-02 1.48413362e+00 -4.42418093e-02 -2.96141451e+01
-1.01282988e+01 -3.67643122e-01 1.74926966e-01 -3.67643122e-01 -6.30446977e+00 -1.90068703e-01 1.74926966e-01 -1.90068703e-01 -5.00744547e+01
-5.79061666e+01 -7.71312345e+00 1.65389659e+01 -7.71312345e+00 -5.83950482e+01 6.99615884e-01 1.65389659e+01 6.99615884e-01 -1.38618598e+02
-4.05979748e+01 -6.31419584e-01 1.04486038e+00 -6.31419584e-01 -3.62764077e+01 2.53654407e+00 1.04486038e+00 2.53654407e+00 -1.12911139e+02
-3.88189240e+01 -1.21905950e+00 2.95816547e+00 -1.21905950e+00 -3.22844679e+01 5.13548204e+00 2.95816547e+00 5.13548204e+00 -1.05418428e+02
-4.43247852e+01 -4.01502383e+00 2.44623053e+00 -4.01502383e+00 -3.40475664e+01 6.44576263e+00 2.44623053e+00 6.44576263e+00 -1.12020187e+02
1.35359276e+01 -5.58736571e-03 9.59156431e-01 -5.58736571e-03 1.50449025e+01 -9.86571074e-01 9.59156431e-01 -9.86571074e-01 8.32558870e-01
1.04575249e+01 -2.32334002e-01 1.12645464e+00 -2.32334002e-01 1.06731988e+01 5.62286070e-02 1.12645464e+00 5.62286070e-02 -7.02001786e+00
-3.30748562e+01 -1.86016034e+00 6.03683690e+00 -1.86016034e+00 -2.84073644e+01 1.20638393e+01 6.03683690e+00 1.20638393e+01 -8.26445210e+01
4.14454269e+01 2.68433392e+00 -1.05817223e+01 2.68433392e+00 4.28126392e+01 -2.39206743e+00 -1.05817223e+01 -2.39206743e+00 6.81799030e+01
1.40152920e+01 -2.77291512e-01 1.85321228e+00 -2.77291512e-01 1.22357789e+01 6.04117702e-01 1.85321228e+00 6.04117702e-01 -6.08585238e-01
1.45510340e+01 7.75306955e-01 3.33111256e-01 7.75306955e-01 1.43728513e+01 5.37671844e-01 3.33111256e-01 5.37671844e-01 1.28384399e+00
2.88536296e+01 -1.75845342e+00 9.74445396e-02 -1.75845342e+00 2.69697286e+01 -6.61924256e-01 9.74445396e-02 -6.61924256e-01 2.82952877e+01
2.34980218e+01 -8.78301561e-01 -5.24058898e+00 -8.78301561e-01 2.47521969e+01 -2.03284939e-01 -5.24058898e+00 -2.03284939e-01 2.13275639e+01
1.56772049e+01 -9.00402702e-02 2.62780766e-01 -9.00402702e-02 1.28913555e+01 1.32393301e-01 2.62780766e-01 1.32393301e-01 1.13777718e+00
1.08747150e+01 -7.46946819e-01 4.37317036e-01 -7.46946819e-01 8.70218617e+00 4.95642059e-01 4.37317036e-01 4.95642059e-01 -8.64457488e+00
3.44415873e+00 -2.72799611e+00 8.53864013e-01 -2.72799611e+00 2.88561749e+00 2.39877184e+00 8.53864013e-01 2.39877184e+00 -2.09262415e+01
-1.91737876e+01 -1.56597057e+00 -4.74554386e-01 -1.56597057e+00 -1.76133963e+01 5.98170993e+00 -4.74554386e-01 5.98170993e+00 -7.15181899e+01
-1.69598165e+00 -7.62192406e-01 -1.42816152e-01 -7.62192406e-01 -1.75098810e+00 -7.64826033e-02 -1.42816152e-01 -7.64826033e-02 -3.38264942e+01
-3.92598009e+00 -4.78995472e-01 -3.42661977e-01 -4.78995472e-01 -6.57103777e+00 1.54868984e+00 -3.42661977e-01 1.54868984e+00 -4.11431293e+01
-8.80748606e+00 -1.44384481e-01 1.27038545e+00 -1.44384481e-01 -2.58787012e+00 -2.43282546e+00 1.27038545e+00 -2.43282546e+00 -4.17862320e+01
-8.39002686e+01 -3.27918303e+00 -5.57902813e+00 -3.27918303e+00 -7.86850452e+01 4.83772254e+00 -5.57902813e+00 4.83772254e+00 -2.06020508e+02
-2.34749243e-01 -6.09802872e-01 -2.57995404e-01 -6.09802872e-01 2.81954166e-01 2.52413839e-01 -2.57995404e-01 2.52413839e-01 -4.31328446e-01
-4.23631363e-01 -4.80451994e-02 -9.94186848e-02 -4.80451994e-02 -9.21260417e-02 -2.44933277e-01 -9.94186848e-02 -2.44933277e-01 1.31692067e-01
6.86964169e-01 -1.40590966e-01 -1.00220371e-01 -1.40590966e-01 -1.05140463e-01 5.86770210e-01 -1.00220371e-01 5.86770210e-01 -9.65894312e-01
4.00529429e-01 -7.02544719e-01 -4.16406989e-03 -7.02544719e-01 -2.06376851e-01 -5.21369696e-01 -4.16406989e-03 -5.21369696e-01 -5.78368917e-01
7.99913168e-01 3.41559723e-02 2.53531672e-01 3.41559723e-02 1.54927540e+00 -4.60153036e-02 2.53531672e-01 -4.60153036e-02 -2.74869819e+01
1.42693572e+00 4.49463740e-01 1.12308258e-01 4.49463740e-01 1.39465830e+00 3.18106353e-01 1.12308258e-01 3.18106353e-01 -2.69146308e+01
5.56268726e+00 -2.94391737e-01 1.79234399e-01 -2.94391737e-01 6.17291228e+00 4.74629646e-01 1.79234399e-01 4.74629646e-01 -1.72602034e+01
1.25446371e+00 1.96954396e-01 2.79271673e-01 1.96954396e-01 2.72013462e+00 -2.40098312e-01 2.79271673e-01 -2.40098312e-01 -2.56764922e+01
6.33904910e+00 -8.44800383e-01 1.81231245e-01 -8.44800383e-01 5.44949198e+00 -7.15556927e-03 1.81231245e-01 -7.15556927e-03 -1.72229634e+01
5.99060209e+00 -5.73637644e-01 8.81822320e-01 -5.73637644e-01 5.86371024e+00 9.17677640e-01 8.81822320e-01 9.17677640e-01 -1.69265139e+01
6.86962056e+00 1.27842722e-01 2.57849766e-01 1.27842722e-01 5.67280269e+00 6.05328187e-01 2.57849766e-01 6.05328187e-01 -1.63335423e+01
1.09583835e+01 -8.46783724e-02 7.41682146e-02 -8.46783724e-02 9.33286592e+00 -9.62944643e-03 7.41682146e-02 -9.62944643e-03 -8.02847040e+00
9.24616039e+00 1.49344159e-01 -1.03266057e-01 1.49344159e-01 7.12441333e+00 4.19706924e-01 -1.03266057e-01 4.19706924e-01 -1.21535165e+01
4.73502654e+00 8.06633469e-02 -4.82790241e-01 8.06633469e-02 2.51343989e+00 7.68008512e-02 -4.82790241e-01 7.68008512e-02 -2.20558573e+01
1.24621533e+01 -1.71422295e-01 1.28702265e-02 -1.71422295e-01 1.06931099e+01 -2.94001289e-02 1.28702265e-02 -2.94001289e-02 -4.85668415e+00