<VTKFile type="UnstructuredGrid" version="0.1" byte_order="LittleEndian">
<UnstructuredGrid>
<Piece NumberOfPoints="191" NumberOfCells="79">
<Points>
<DataArray type="Float64" NumberOfComponents="3" format="ascii">
 1.00010121e+00  5.00095034e+00  1.99900675e+00
 2.00019598e+00  5.00091362e+00  1.99914122e+00
 2.00015974e+00  6.00106096e+00  1.99891269e+00
 1.00007522e+00  6.00107908e+00  1.99886262e+00
 1.00007510e+00  5.00113010e+00  2.99850821e+00
 2.00010872e+00  5.00118399e+00  2.99858022e+00
 2.00000310e+00  6.00136566e+00  2.99820185e+00
 1.00003421e+00  6.00116587e+00  2.99839664e+00
 3.00029302e+00  5.00087690e+00  1.99923539e+00
 3.00026464e+00  6.00100422e+00  1.99903202e+00
 3.00026846e+00  5.00111294e+00  2.99880576e+00
 3.00050545e+00  6.00165176e+00  2.99761510e+00
 5.00042391e+00  5.00094366e+00  2.00000477e+00
 6.00042343e+00  5.00101566e+00  1.99997830e+00
 6.00035286e+00  6.00101662e+00  1.99999928e+00
 5.00034857e+00  6.00094700e+00  2.00002289e+00
 5.00045252e+00  5.00092077e+00  3.00000286e+00
 6.00045109e+00  5.00099707e+00  2.99997592e+00
 6.00037670e+00  6.00099421e+00  2.99999809e+00
 5.00037813e+00  6.00092030e+00  3.00002813e+00
 0.00000000e+00  0.00000000e+00  2.99774694e+00
 1.00022447e+00  0.00000000e+00  2.99769163e+00
 1.00019777e+00  1.00022995e+00  2.99780393e+00
 0.00000000e+00  1.00025547e+00  2.99787045e+00
 0.00000000e+00  0.00000000e+00  3.99695492e+00
 1.00034308e+00  0.00000000e+00  3.99691653e+00
 1.00035000e+00  1.00021303e+00  3.99692059e+00
 0.00000000e+00  1.00021088e+00  3.99700522e+00
 2.00048733e+00  0.00000000e+00  2.99753070e+00
 2.00042295e+00  1.00013649e+00  2.99766755e+00
 2.00067019e+00  0.00000000e+00  3.99680758e+00
 2.00067925e+00  1.00023019e+00  3.99670506e+00
 3.00077319e+00  0.00000000e+00  2.99736476e+00
 3.00076127e+00  1.00007010e+00  2.99740767e+00
 3.00098038e+00  0.00000000e+00  3.99662852e+00
 3.00096822e+00  1.00020456e+00  3.99651623e+00
 4.00109529e+00  0.00000000e+00  2.99721742e+00
 4.00109673e+00  1.00009561e+00  2.99712420e+00
 4.00124216e+00  0.00000000e+00  3.99646997e+00
 4.00124407e+00  1.00015485e+00  3.99637413e+00
 5.00136518e+00  0.00000000e+00  2.99704933e+00
 5.00139236e+00  1.00013649e+00  2.99703956e+00
 5.00145435e+00  0.00000000e+00  3.99641442e+00
 5.00146675e+00  1.00012183e+00  3.99627757e+00
 6.00155067e+00  0.00000000e+00  2.99695325e+00
 6.00161743e+00  1.00008810e+00  2.99697566e+00
 6.00159550e+00  0.00000000e+00  3.99637699e+00
 6.00165606e+00  1.00008142e+00  3.99625778e+00
 1.00008118e+00  2.00044346e+00  2.99803782e+00
 0.00000000e+00  2.00054502e+00  2.99810863e+00
 1.00035226e+00  2.00051570e+00  3.99722457e+00
 0.00000000e+00  2.00054145e+00  3.99736404e+00
 2.00029373e+00  2.00036049e+00  2.99744821e+00
 2.00074577e+00  2.00050139e+00  3.99673891e+00
 3.00061560e+00  2.00036144e+00  2.99701834e+00
 3.00096726e+00  2.00044298e+00  3.99596500e+00
 4.00114632e+00  2.00050354e+00  2.99726939e+00
 4.00117445e+00  2.00030160e+00  3.99588633e+00
 5.00146675e+00  2.00040913e+00  2.99707270e+00
 5.00150204e+00  2.00039434e+00  3.99622536e+00
 6.00172567e+00  2.00032043e+00  2.99707532e+00
 6.00177622e+00  2.00029016e+00  3.99616241e+00
 1.00003076e+00  3.00076103e+00  2.99852586e+00
 0.00000000e+00  3.00081062e+00  2.99829006e+00
 1.00017595e+00  3.00092411e+00  3.99732208e+00
 0.00000000e+00  3.00081539e+00  3.99795270e+00
 2.00023150e+00  3.00062537e+00  2.99798131e+00
 2.00072432e+00  3.00091386e+00  3.99630213e+00
 3.00005174e+00  3.00038338e+00  2.99488640e+00
 3.00124431e+00  3.00065351e+00  3.99558330e+00
 1.00004327e+00  4.00098610e+00  2.99866939e+00
 0.00000000e+00  4.00101900e+00  2.99849367e+00
 1.00008714e+00  4.00113249e+00  3.99800158e+00
 0.00000000e+00  4.00103569e+00  3.99814248e+00
 0.00000000e+00  5.00108051e+00  2.99852467e+00
 1.00011218e+00  5.00133896e+00  3.99822354e+00
 0.00000000e+00  5.00124550e+00  3.99804640e+00
 2.00013304e+00  4.00101948e+00  2.99913168e+00
 2.00019360e+00  4.00134611e+00  3.99788499e+00
 2.00040722e+00  5.00134945e+00  3.99810362e+00
 0.00000000e+00  6.00117683e+00  2.99831247e+00
 1.00016510e+00  6.00169945e+00  3.99740171e+00
 0.00000000e+00  6.00162268e+00  3.99759555e+00
 2.00050402e+00  6.00202894e+00  3.99723625e+00
 3.00086951e+00  5.00133562e+00  3.99606562e+00
 3.00119567e+00  6.00176001e+00  3.99626207e+00
 0.00000000e+00  0.00000000e+00  4.99597168e+00
 1.00047040e+00  0.00000000e+00  4.99593401e+00
 1.00050855e+00  1.00023377e+00  4.99597359e+00
 0.00000000e+00  1.00020850e+00  4.99602079e+00
 2.00085092e+00  0.00000000e+00  4.99584532e+00
 2.00091290e+00  1.00030315e+00  4.99583626e+00
 3.00112510e+00  0.00000000e+00  4.99577236e+00
 3.00116324e+00  1.00035691e+00  4.99566412e+00
 4.00132895e+00  0.00000000e+00  4.99571896e+00
 4.00132513e+00  1.00032389e+00  4.99560452e+00
 5.00150776e+00  0.00000000e+00  4.99571085e+00
 5.00149345e+00  1.00026166e+00  4.99563169e+00
 6.00168943e+00  0.00000000e+00  4.99567986e+00
 6.00168610e+00  1.00025678e+00  4.99565458e+00
 1.00062382e+00  2.00055838e+00  4.99592829e+00
 0.00000000e+00  2.00047159e+00  4.99612331e+00
 2.00107217e+00  2.00063658e+00  4.99563360e+00
 3.00128603e+00  2.00062299e+00  4.99545670e+00
 4.00135994e+00  2.00053716e+00  4.99525595e+00
 5.00148916e+00  2.00042796e+00  4.99518585e+00
 6.00162649e+00  2.00043058e+00  4.99525213e+00
 1.00072682e+00  3.00072622e+00  4.99681139e+00
 0.00000000e+00  3.00085759e+00  4.99703789e+00
 2.00120902e+00  3.00079656e+00  4.99565649e+00
 3.00140119e+00  3.00070500e+00  4.99508572e+00
 4.00122499e+00  3.00010443e+00  3.99470806e+00
 4.00151634e+00  3.00066400e+00  4.99492884e+00
 1.00060964e+00  4.00077772e+00  4.99759912e+00
 0.00000000e+00  4.00085402e+00  4.99748564e+00
 2.00119042e+00  4.00092506e+00  4.99583340e+00
 1.00066125e+00  5.00166655e+00  4.99657488e+00
 0.00000000e+00  5.00163937e+00  4.99681950e+00
 1.00064218e+00  6.00245476e+00  4.99650526e+00
 0.00000000e+00  6.00235701e+00  4.99646378e+00
 2.00129914e+00  5.00165701e+00  4.99609661e+00
 2.00159097e+00  6.00221443e+00  4.99611616e+00
 3.00160527e+00  5.00138998e+00  4.99535751e+00
 3.00212717e+00  6.00143814e+00  4.99543381e+00
 4.00070333e+00  5.00109673e+00  3.99448800e+00
 4.00121784e+00  6.00106001e+00  3.99464536e+00
 4.00179148e+00  5.00084543e+00  4.99481535e+00
 4.00219250e+00  6.00096607e+00  4.99488831e+00
 5.00189686e+00  5.00057459e+00  3.99484301e+00
 6.00189686e+00  5.00032473e+00  3.99486160e+00
 6.00213671e+00  6.00033283e+00  3.99485564e+00
 5.00212669e+00  6.00057650e+00  3.99486136e+00
 5.00187445e+00  5.00056601e+00  4.99485254e+00
 6.00188446e+00  5.00033903e+00  4.99485970e+00
 6.00212574e+00  6.00032473e+00  4.99485779e+00
 5.00214958e+00  6.00056505e+00  4.99485493e+00
 0.00000000e+00  0.00000000e+00  5.99485874e+00
 1.00052381e+00  0.00000000e+00  5.99485874e+00
 1.00058413e+00  1.00028634e+00  5.99485874e+00
 0.00000000e+00  1.00023174e+00  5.99485874e+00
 2.00093055e+00  0.00000000e+00  5.99485874e+00
 2.00099611e+00  1.00036359e+00  5.99485874e+00
 3.00118017e+00  0.00000000e+00  5.99485874e+00
 3.00123787e+00  1.00040412e+00  5.99485874e+00
 4.00134230e+00  0.00000000e+00  5.99485874e+00
 4.00137520e+00  1.00041831e+00  5.99485874e+00
 5.00152254e+00  0.00000000e+00  5.99485874e+00
 5.00150490e+00  1.00039208e+00  5.99485874e+00
 6.00179005e+00  0.00000000e+00  5.99485874e+00
 6.00167322e+00  1.00043309e+00  5.99485874e+00
 1.00073826e+00  2.00041938e+00  5.99485874e+00
 0.00000000e+00  2.00035977e+00  5.99485874e+00
 2.00119376e+00  2.00061202e+00  5.99485874e+00
 3.00137353e+00  2.00068331e+00  5.99485874e+00
 4.00146484e+00  2.00063992e+00  5.99485874e+00
 5.00149679e+00  2.00059342e+00  5.99485874e+00
 6.00153446e+00  2.00059533e+00  5.99485874e+00
 1.00094974e+00  3.00110126e+00  5.99485874e+00
 0.00000000e+00  3.00118709e+00  5.99485874e+00
 2.00149989e+00  3.00091481e+00  5.99485874e+00
 3.00155830e+00  3.00081468e+00  5.99485874e+00
 4.00152445e+00  3.00072145e+00  5.99485874e+00
 5.00152302e+00  3.00050664e+00  4.99480343e+00
 5.00154734e+00  3.00060296e+00  5.99485874e+00
 6.00156450e+00  3.00044584e+00  4.99481821e+00
 6.00154448e+00  3.00053382e+00  5.99485874e+00
 3.00150847e+00  4.00076294e+00  4.99461699e+00
 3.00172186e+00  4.00090027e+00  5.99485874e+00
 2.00175428e+00  4.00093842e+00  5.99485874e+00
 4.00166273e+00  4.00068712e+00  4.99485302e+00
 4.00162983e+00  4.00073099e+00  5.99485874e+00
 5.00164270e+00  4.00059271e+00  4.99486113e+00
 5.00165081e+00  4.00057364e+00  5.99485874e+00
 6.00165415e+00  4.00040865e+00  4.99484873e+00
 6.00165319e+00  4.00038910e+00  5.99485874e+00
 0.00000000e+00  4.00053358e+00  5.99485874e+00
 1.00148737e+00  4.00079823e+00  5.99485874e+00
 1.00105047e+00  5.00199652e+00  5.99485874e+00
 0.00000000e+00  5.00199986e+00  5.99485874e+00
 5.00185490e+00  5.00056553e+00  5.99485874e+00
 4.00188875e+00  5.00083542e+00  5.99485874e+00
 6.00188446e+00  5.00034666e+00  5.99485874e+00
 1.00107396e+00  6.00255823e+00  5.99485874e+00
 0.00000000e+00  6.00275898e+00  5.99485874e+00
 2.00152755e+00  5.00170040e+00  5.99485874e+00
 2.00201058e+00  6.00209522e+00  5.99485874e+00
 3.00184536e+00  5.00132751e+00  5.99485874e+00
 3.00238347e+00  6.00141144e+00  5.99485874e+00
 4.00229740e+00  6.00087738e+00  5.99485874e+00
 5.00215006e+00  6.00055265e+00  5.99485874e+00
 6.00211954e+00  6.00032759e+00  5.99485874e+00
</DataArray>
</Points>
<PointData Tensors="Stress_Components,Plastic_strain_components" Vevtors="Spatial_displacement,Reaction_force" Scalars="Equivalent_plastic_strain,Stress_Mises,Stress_Max_Principal,Stress_Mid_Principal,Stress_Min_Principal,Stress_Pressure,Stress_Tresca,Stress_Third_Invariant,Plastic_strain_Max_Principal,Plastic_strain_Min_Principal">
<DataArray type="Float32" Name="Stress_Components" NumberOfComponents="9" format="ascii">
-7.23818690e-03 -1.09989301e+00 3.68487464e-01 -1.09989301e+00 7.50580058e-03 1.04980609e+00 3.68487464e-01 1.04980609e+00 -2.47778897e+01
2.99900562e-01 -1.21665175e+00 -5.54424457e-01 -1.21665175e+00 5.35110377e-01 6.87668075e-01 -5.54424457e-01 6.87668075e-01 -2.39748313e+01
-3.68538689e-01 -1.40017357e+00 -1.91497982e-01 -1.40017357e+00 1.59042902e+00 -1.02011744e+00 -1.91497982e-01 -1.02011744e+00 -2.94743810e+01
-1.54185089e+00 -5.61039545e-01 -9.44721043e-01 -5.61039545e-01 5.07030055e-01 -1.09207165e+00 -9.44721043e-01 -1.09207165e+00 -2.67182827e+01
-1.92244368e+00 1.04581813e+00 1.20656231e+00 1.04581813e+00 -2.64684021e-01 8.15606259e-01 1.20656231e+00 8.15606259e-01 -2.21087651e+01
-5.78344735e-01 -1.03051588e+00 -5.05751903e+00 -1.03051588e+00 3.28426496e+00 3.77006800e+00 -5.05751903e+00 3.77006800e+00 -2.82333270e+01
-3.78214270e-01 2.32279432e+00 1.29293111e+00 2.32279432e+00 -1.38895273e+00 -3.92020944e+00 1.29293111e+00 -3.92020944e+00 -3.04968672e+01
-1.44001378e+00 9.73600417e-01 2.87242803e+00 9.73600417e-01 -2.61764079e-01 -4.11110058e-01 2.87242803e+00 -4.11110058e-01 -2.56643810e+01
9.54303518e-01 -6.08804538e-01 -3.52124630e+00 -6.08804538e-01 2.10839652e+00 1.32269236e+00 -3.52124630e+00 1.32269236e+00 -2.46217265e+01
-3.91891748e-01 -1.08916542e+00 1.69255304e+00 -1.08916542e+00 5.40196896e-02 2.93260995e+00 1.69255304e+00 2.93260995e+00 -3.10275011e+01
-4.17265590e+00 2.35253100e+00 -1.09383777e+01 2.35253100e+00 -2.33286953e+00 4.18387914e+00 -1.09383777e+01 4.18387914e+00 -2.88778776e+01
-4.43499327e+00 5.27152896e+00 -7.27322102e+00 5.27152896e+00 -3.22049344e+00 -7.47615516e-01 -7.27322102e+00 -7.47615516e-01 -3.67461987e+01
-6.22511050e-02 -6.31842054e-02 -1.74541809e-02 -6.31842054e-02 8.70819204e-02 6.56282529e-04 -1.74541809e-02 6.56282529e-04 -7.75646195e-02
4.75635454e-02 3.20655201e-02 1.05058216e-03 3.20655201e-02 1.12943765e-01 -1.23857027e-02 1.05058216e-03 -1.23857027e-02 -2.13241888e-01
7.99510507e-02 -9.90913948e-03 6.64517339e-02 -9.90913948e-03 -4.51716708e-02 1.30785648e-02 6.64517339e-02 1.30785648e-02 -8.75136890e-02
-6.71969140e-02 -1.05159946e-01 -7.50230998e-03 -1.05159946e-01 -1.08360781e-01 -5.24160229e-02 -7.50230998e-03 -5.24160229e-02 1.22822747e-01
4.50445572e-03 3.07369940e-02 4.48370166e-02 3.07369940e-02 5.32826222e-02 4.03202809e-02 4.48370166e-02 4.03202809e-02 -1.69715323e-02
4.26563732e-02 3.68856378e-02 6.94788024e-02 3.68856378e-02 -5.30683016e-03 2.01724917e-02 6.94788024e-02 2.01724917e-02 3.46756121e-03
3.46933231e-02 -1.14843436e-02 -7.34708412e-03 -1.14843436e-02 -2.55542491e-02 -1.22990273e-01 -7.34708412e-03 -1.22990273e-01 3.16768102e-02
-8.49456564e-02 -1.76347680e-02 -2.56067012e-02 -1.76347680e-02 -4.84552868e-02 -1.37332557e-02 -2.56067012e-02 -1.37332557e-02 1.74218968e-01
-1.18973345e-01 1.64935860e-03 1.89755368e+00 1.64935860e-03 7.72407964e-01 -8.44049662e-01 1.89755368e+00 -8.44049662e-01 -2.90815945e+01
3.59315578e-01 -3.87332611e-01 1.73765156e+00 -3.87332611e-01 -6.77511413e-02 -1.86370648e-01 1.73765156e+00 -1.86370648e-01 -2.94990788e+01
-9.97112384e-02 -1.94097812e+00 2.24931152e+00 -1.94097812e+00 1.87195216e-01 1.67307623e-01 2.24931152e+00 1.67307623e-01 -2.94521320e+01
-6.95490439e-01 -3.58167492e-01 2.07421058e+00 -3.58167492e-01 1.44150716e+00 -1.01410128e+00 2.07421058e+00 -1.01410128e+00 -2.88165221e+01
1.42202336e+00 -9.19008162e-05 6.86026692e-01 -9.19008162e-05 -2.44933152e+00 -5.59514731e-01 6.86026692e-01 -5.59514731e-01 -3.09009819e+01
1.22578016e+00 1.02518303e-01 7.08451252e-02 1.02518303e-01 -2.37751812e+00 6.65201351e-01 7.08451252e-02 6.65201351e-01 -3.10510774e+01
5.14578775e-01 2.16165412e-01 2.01971075e+00 2.16165412e-01 -1.94005909e+00 5.80230355e-02 2.01971075e+00 5.80230355e-02 -3.10053148e+01
4.56143014e-01 3.12251551e-02 2.28614149e+00 3.12251551e-02 -1.97633061e+00 -1.12077105e+00 2.28614149e+00 -1.12077105e+00 -3.09476323e+01
1.90369549e+00 -9.95601267e-01 2.19084793e+00 -9.95601267e-01 -2.34333256e+00 -3.81257087e-02 2.19084793e+00 -3.81257087e-02 -2.99654455e+01
5.28750135e-01 -2.61762746e+00 -2.90457532e-01 -2.61762746e+00 -2.48440081e+00 -2.59705920e-01 -2.90457532e-01 -2.59705920e-01 -3.13936076e+01
7.19254464e-01 1.49327580e-01 -1.41572437e+00 1.49327580e-01 -1.96504802e+00 5.10529437e-01 -1.41572437e+00 5.10529437e-01 -3.11976862e+01
3.17577316e-01 4.71000081e-01 7.06774998e-01 4.71000081e-01 -1.43254108e+00 5.68304176e-01 7.06774998e-01 5.68304176e-01 -3.14189212e+01
3.17560911e+00 -1.86678983e-01 7.40871713e-01 -1.86678983e-01 -4.26489103e+00 4.94489711e-01 7.40871713e-01 4.94489711e-01 -3.03301048e+01
7.06628151e-01 -1.35980263e+00 -1.89997526e+00 -1.35980263e+00 -3.84198728e+00 -1.16464864e+00 -1.89997526e+00 -1.16464864e+00 -3.24668245e+01
8.56823146e-01 -1.75022524e-01 -1.62452176e+00 -1.75022524e-01 -1.66140521e+00 9.62513722e-02 -1.62452176e+00 9.62513722e-02 -3.07414784e+01
1.33028168e-01 -5.77461969e-01 -2.50255627e+00 -5.77461969e-01 -1.65701969e+00 4.67687523e-01 -2.50255627e+00 4.67687523e-01 -3.09946461e+01
2.81976479e+00 2.89448162e-02 -1.51906741e+00 2.89448162e-02 -3.83474725e+00 -6.50761803e-02 -1.51906741e+00 -6.50761803e-02 -3.04360251e+01
-1.51949123e-01 7.73289599e-01 2.11263821e-01 7.73289599e-01 -2.07011393e+00 -2.50511408e-01 2.11263821e-01 -2.50511408e-01 -3.22091796e+01
1.31046878e+00 3.07297716e-02 -1.51172197e+00 3.07297716e-02 -1.35372366e+00 1.47986833e-01 -1.51172197e+00 1.47986833e-01 -2.98508682e+01
1.01435307e+00 -1.14746363e+00 -2.74187043e+00 -1.14746363e+00 -2.02755098e+00 -7.66003863e-02 -2.74187043e+00 -7.66003863e-02 -3.02270355e+01
1.37780811e+00 4.90869179e-01 -1.56306369e-01 4.90869179e-01 -1.93962711e+00 -5.61057556e-01 -1.56306369e-01 -5.61057556e-01 -3.05311084e+01
2.46568721e-01 6.22475311e-01 -3.09380826e-01 6.22475311e-01 -1.41746648e+00 4.80503488e-01 -3.09380826e-01 4.80503488e-01 -3.11528404e+01
1.11004489e+00 2.12822903e-01 -2.47931242e+00 2.12822903e-01 -8.33385743e-01 4.64023141e-01 -2.47931242e+00 4.64023141e-01 -2.93021150e+01
1.10186674e-02 -2.24070502e-01 -5.33197797e-01 -2.24070502e-01 -3.72236045e-01 -9.70676234e-02 -5.33197797e-01 -9.70676234e-02 -3.04751196e+01
1.62896520e+00 1.30729949e+00 4.53005835e-01 1.30729949e+00 -2.29816055e+00 -8.62561345e-01 4.53005835e-01 -8.62561345e-01 -3.04556694e+01
7.65694900e-01 6.11009099e-01 2.35586092e-01 6.11009099e-01 -1.40739278e+00 -3.67463812e-01 2.35586092e-01 -3.67463812e-01 -3.05654349e+01
1.30484065e+00 1.18162990e+00 -2.37022579e+00 1.18162990e+00 -1.03049740e+00 6.07066832e-01 -2.37022579e+00 6.07066832e-01 -2.92989750e+01
7.17864431e-01 8.63715447e-01 -3.47940862e-01 8.63715447e-01 -9.62312646e-01 2.16289075e-01 -3.47940862e-01 2.16289075e-01 -3.01762228e+01
-2.99020836e+00 -2.66545832e+00 5.00187711e+00 -2.66545832e+00 4.81053740e-01 -2.76847818e+00 5.00187711e+00 -2.76847818e+00 -2.88075769e+01
-2.49149558e+00 -1.63090086e+00 3.22861052e+00 -1.63090086e+00 3.70995826e+00 -1.18702444e+00 3.22861052e+00 -1.18702444e+00 -2.73805132e+01
-5.76890483e-02 -1.12715850e+00 3.29925233e+00 -1.12715850e+00 -9.41234179e-01 -4.24833521e-01 3.29925233e+00 -4.24833521e-01 -3.04780548e+01
3.32454249e-01 -2.70416781e-01 5.40718037e+00 -2.70416781e-01 -1.43396451e+00 -1.53622970e+00 5.40718037e+00 -1.53622970e+00 -2.94254274e+01
-1.56380109e+00 -1.94193777e+00 1.72312895e+00 -1.94193777e+00 -1.81811066e+00 -3.23414057e+00 1.72312895e+00 -3.23414057e+00 -3.32956042e+01
-2.05835324e-01 -7.34979156e-02 -3.85241657e-01 -7.34979156e-02 3.07694822e-01 -2.88553573e+00 -3.85241657e-01 -2.88553573e+00 -2.92441247e+01
-2.19343468e+00 -1.61342186e+00 -7.26813350e+00 -1.61342186e+00 -5.43330317e+00 1.24189942e+00 -7.26813350e+00 1.24189942e+00 -3.41983078e+01
2.45145602e-01 4.48351741e-01 -5.04185169e+00 4.48351741e-01 5.46797849e-01 -1.78439239e+00 -5.04185169e+00 -1.78439239e+00 -2.76555955e+01
-2.06110242e+00 6.63572684e-01 -8.25654119e-02 6.63572684e-01 -2.30756266e+00 1.83679265e+00 -8.25654119e-02 1.83679265e+00 -3.47375097e+01
1.04507957e+00 -1.26792746e+00 -7.65960474e+00 -1.26792746e+00 -4.21385241e+00 3.10810645e+00 -7.65960474e+00 3.10810645e+00 -2.89153034e+01
-5.97607255e-01 -2.91464381e-01 -7.50353411e-01 -2.91464381e-01 -1.01202642e+00 4.37305853e-01 -7.50353411e-01 4.37305853e-01 -3.16732163e+01
-8.09226505e-01 3.37811142e-01 -7.81252630e-01 3.37811142e-01 -1.63847686e+00 1.87358666e+00 -7.81252630e-01 1.87358666e+00 -3.25319033e+01
4.50810026e-02 2.85183817e-01 -6.02707744e-01 2.85183817e-01 -7.02513278e-01 6.83048308e-01 -6.02707744e-01 6.83048308e-01 -3.06566563e+01
-6.75144792e-02 2.20958561e-01 -5.72087705e-01 2.20958561e-01 -2.03522551e+00 -1.79901685e+00 -5.72087705e-01 -1.79901685e+00 -3.20519943e+01
-4.09598242e+00 -1.77635391e+00 5.81569311e+00 -1.77635391e+00 1.12463917e+00 -1.55478924e+00 5.81569311e+00 -1.55478924e+00 -2.77298268e+01
-3.26221040e+00 -9.62789893e-01 4.71547407e+00 -9.62789893e-01 4.94272673e+00 4.49587578e+00 4.71547407e+00 4.49587578e+00 -2.59534464e+01
8.53314246e-01 -1.03664392e+00 4.06475543e+00 -1.03664392e+00 -1.83805415e-01 -4.82724263e+00 4.06475543e+00 -4.82724263e+00 -2.67484373e+01
-7.15579450e-01 1.53108013e+00 6.17066532e+00 1.53108013e+00 7.09931575e-01 -9.42111886e+00 6.17066532e+00 -9.42111886e+00 -2.30583344e+01
-4.92674762e+00 -1.96631503e+00 7.00933266e+00 -1.96631503e+00 -2.25612881e+00 -6.98371590e+00 7.00933266e+00 -6.98371590e+00 -3.29343047e+01
7.78370380e-01 -2.17669474e+00 4.31424451e-01 -2.17669474e+00 -1.62626796e+00 -3.63398044e+00 4.31424451e-01 -3.63398044e+00 -2.88887146e+01
-1.86476707e+01 -7.38471746e+00 -1.50402632e+01 -7.38471746e+00 -1.30396814e+01 -1.86865501e+01 -1.50402632e+01 -1.86865501e+01 1.70087337e+00
2.75404978e+00 -2.92613811e+00 -7.29355399e+00 -2.92613811e+00 -1.26791660e+00 -7.24535495e+00 -7.29355399e+00 -7.24535495e+00 -1.72427648e+01
-1.48272866e+00 3.92183377e-01 2.14640551e+00 3.92183377e-01 3.32150646e+00 5.52240263e+00 2.14640551e+00 5.52240263e+00 -2.54601209e+01
-2.39572510e+00 -6.99220687e-01 3.93234816e+00 -6.99220687e-01 1.42759135e+00 3.73156798e+00 3.93234816e+00 3.73156798e+00 -2.19899626e+01
-2.95620859e-02 1.51280928e+00 6.12678691e+00 1.51280928e+00 3.30629752e+00 2.32432403e+00 6.12678691e+00 2.32432403e+00 -2.37616866e+01
6.75729409e-01 1.73789942e+00 1.78416319e-01 1.73789942e+00 5.19810277e+00 -2.70795387e+00 1.78416319e-01 -2.70795387e+00 -2.18929720e+01
-3.34027700e-01 1.05534109e+00 9.39691186e-01 1.05534109e+00 -5.36512733e-02 -3.04890975e-01 9.39691186e-01 -3.04890975e-01 -2.32149429e+01
-1.67916435e+00 1.39037832e+00 -1.07572539e+00 1.39037832e+00 1.08863679e+00 3.02557203e+00 -1.07572539e+00 3.02557203e+00 -2.55931718e+01
-9.06270534e-01 1.29627250e+00 -2.42199421e-01 1.29627250e+00 4.37241077e+00 2.47821540e+00 -2.42199421e-01 2.47821540e+00 -2.56941652e+01
-5.95019841e+00 6.18136380e-01 1.09408051e-01 6.18136380e-01 -3.51182729e-01 6.59863341e+00 1.09408051e-01 6.59863341e+00 -1.86328785e+01
-2.97763944e+00 1.04463458e+00 7.69493175e+00 1.04463458e+00 -3.54822719e+00 3.16897333e+00 7.69493175e+00 3.16897333e+00 -3.29962711e+01
-4.01761737e+00 1.84617769e+00 -2.79136596e+00 1.84617769e+00 -2.05897939e+00 -3.05369186e+00 -2.79136596e+00 -3.05369186e+00 -3.02949684e+01
-9.52881016e-01 -2.24260554e-01 1.21194267e+00 -2.24260554e-01 1.55115619e+00 1.63663405e+00 1.21194267e+00 1.63663405e+00 -2.77809343e+01
-5.34970433e-01 2.94274265e+00 -1.57014279e+00 2.94274265e+00 1.78112283e+00 1.58655033e+00 -1.57014279e+00 1.58655033e+00 -2.85439010e+01
-2.50839984e+00 9.79119956e-01 1.78032506e+00 9.79119956e-01 2.76816285e+00 -2.80802178e+00 1.78032506e+00 -2.80802178e+00 -2.91129217e+01
-2.99085981e+00 1.31502444e+00 -3.74354056e+00 1.31502444e+00 -8.87123793e-02 1.85493937e+00 -3.74354056e+00 1.85493937e+00 -3.12522354e+01
-3.75939202e+00 1.91638968e+00 2.93245745e+00 1.91638968e+00 5.62177499e-01 -1.06086303e+01 2.93245745e+00 -1.06086303e+01 -3.01321119e+01
8.40896599e-01 -1.20937294e+00 -1.98478699e-01 -1.20937294e+00 5.00445803e-01 -3.55231218e+00 -1.98478699e-01 -3.55231218e+00 -3.02912464e+01
1.81789333e+00 8.05730000e-04 6.44357651e-01 8.05730000e-04 -4.74484062e+00 -4.67144370e-01 6.44357651e-01 -4.67144370e-01 -3.24454632e+01
1.24311285e+00 4.56537873e-01 5.41263074e-01 4.56537873e-01 -3.70361912e+00 3.35158076e-01 5.41263074e-01 3.35158076e-01 -3.22093029e+01
1.04043511e+00 1.45265156e+00 4.80700312e-01 1.45265156e+00 -3.48366213e+00 3.09941402e-01 4.80700312e-01 3.09941402e-01 -3.21836588e+01
1.80187112e+00 2.78882191e-01 1.06052724e+00 2.78882191e-01 -4.84372461e+00 -5.84441572e-01 1.06052724e+00 -5.84441572e-01 -3.25874200e+01
-2.87229419e-01 7.92049229e-01 -5.33053270e-02 7.92049229e-01 -1.13068270e+00 6.30843962e-01 -5.33053270e-02 6.30843962e-01 -3.14628277e+01
-3.45694646e-01 2.19301733e+00 -4.14001130e-01 2.19301733e+00 -7.99161015e-01 5.85242510e-02 -4.14001130e-01 5.85242510e-02 -3.07457724e+01
-1.75524491e+00 5.31339645e-01 -1.44577590e+00 5.31339645e-01 1.31438798e+00 4.96781163e-01 -1.44577590e+00 4.96781163e-01 -3.02216163e+01
-1.26404301e+00 1.30631613e+00 -8.21610369e-01 1.30631613e+00 1.56372810e+00 2.13168268e-01 -8.21610369e-01 2.13168268e-01 -2.92946904e+01
-1.74665236e+00 -3.21544367e-02 -1.72683099e+00 -3.21544367e-02 2.15935871e+00 2.81236331e-01 -1.72683099e+00 2.81236331e-01 -2.92129884e+01
-1.09782922e+00 -4.72324021e-01 -1.53668353e+00 -4.72324021e-01 1.97626260e+00 7.35492777e-01 -1.53668353e+00 7.35492777e-01 -2.85351605e+01
-6.93541259e-01 -2.03650251e-01 -1.30468655e+00 -2.03650251e-01 1.82935393e+00 2.27985110e-01 -1.30468655e+00 2.27985110e-01 -2.86522956e+01
-6.38576038e-02 -6.89366512e-01 -2.12714776e+00 -6.89366512e-01 1.02017919e+00 7.11646482e-01 -2.12714776e+00 7.11646482e-01 -2.85284448e+01
-4.32731099e-01 -6.64038863e-02 -4.38592315e-01 -6.64038863e-02 1.94150162e+00 1.03726077e+00 -4.38592315e-01 1.03726077e+00 -2.83656187e+01
5.98966498e-02 -6.21690266e-01 -6.99170470e-01 -6.21690266e-01 7.86774278e-01 5.50253116e-01 -6.99170470e-01 5.50253116e-01 -2.86692643e+01
1.66114621e+00 1.87530574e+00 3.47379971e+00 1.87530574e+00 -4.50279279e+00 -6.44363627e-01 3.47379971e+00 -6.44363627e-01 -3.06835787e+01
1.18147691e+00 7.77786300e-01 3.61869278e+00 7.77786300e-01 -5.17487329e+00 -1.89677116e+00 3.61869278e+00 -1.89677116e+00 -3.20846801e+01
1.54206862e+00 2.25002949e+00 -4.17948636e-01 2.25002949e+00 -6.54788062e-01 -2.66672716e-01 -4.17948636e-01 -2.66672716e-01 -2.87294364e+01
1.59271345e+00 1.32009199e+00 -3.19495878e+00 1.32009199e+00 2.73442647e+00 2.91700214e-01 -3.19495878e+00 2.91700214e-01 -2.54926825e+01
1.04906806e+00 -1.69408832e-01 -4.01088044e+00 -1.69408832e-01 4.06679494e+00 -1.45658399e-01 -4.01088044e+00 -1.45658399e-01 -2.40636539e+01
9.18670174e-01 -8.19332133e-01 -5.48928587e+00 -8.19332133e-01 9.40931340e-01 6.02715214e-03 -5.48928587e+00 6.02715214e-03 -2.28800941e+01
1.72565158e+00 -1.14144741e+00 -4.94557365e+00 -1.14144741e+00 9.32233691e-01 -8.30895066e-01 -4.94557365e+00 -8.30895066e-01 -2.43259875e+01
3.53471853e+00 -1.54210781e-01 8.21593173e+00 -1.54210781e-01 -6.87864312e+00 -2.22377114e+00 8.21593173e+00 -2.22377114e+00 -2.51652934e+01
3.02028330e+00 -1.16321347e+00 7.16022301e+00 -1.16321347e+00 -5.96707169e+00 -1.83308697e+00 7.16022301e+00 -1.83308697e+00 -2.81120904e+01
3.62166641e+00 8.82100215e-01 1.33734710e+00 8.82100215e-01 -9.85725025e-01 -5.98451895e+00 1.33734710e+00 -5.98451895e+00 -2.57773094e+01
3.35903064e+00 9.23263744e-01 -6.37436422e+00 9.23263744e-01 1.21347507e-02 -4.30524589e+00 -6.37436422e+00 -4.30524589e+00 -1.68587612e+01
-5.16698265e+00 -1.06906223e+01 -1.42221451e+01 -1.06906223e+01 -1.32490225e+01 -1.24519930e+01 -1.42221451e+01 -1.24519930e+01 2.24942231e+00
-9.20139861e-01 1.36699903e+00 -1.35928239e+00 1.36699903e+00 -3.19043112e-01 -1.64122715e+00 -1.35928239e+00 -1.64122715e+00 -4.28062449e+00
1.42834550e+00 -2.86716536e-01 -1.93836582e+00 -2.86716536e-01 -4.66152617e+00 8.86207223e-01 -1.93836582e+00 8.86207223e-01 -2.29688871e+01
2.49965411e+00 -2.87499368e-01 -3.20583566e+00 -2.87499368e-01 -1.36747448e+00 8.71855209e-01 -3.20583566e+00 8.71855209e-01 -2.57337716e+01
3.23709559e+00 -2.95363188e-01 4.54213738e-01 -2.95363188e-01 -2.07024725e+00 -5.18834543e+00 4.54213738e-01 -5.18834543e+00 -3.22109137e+01
-1.54807851e+00 8.35284616e-02 -4.54595486e-02 8.35284616e-02 4.41996371e-01 1.08053066e+00 -4.54595486e-02 1.08053066e+00 -3.16265990e+01
-9.07715499e-01 -2.66889846e-02 -5.46886083e-01 -2.66889846e-02 4.63490095e-01 -1.94627044e+00 -5.46886083e-01 -1.94627044e+00 -3.07947321e+01
-5.51262014e-01 -7.46873751e-01 3.25975844e+00 -7.46873751e-01 -6.64975137e-01 2.17675736e+00 3.25975844e+00 2.17675736e+00 -3.00325780e+01
-7.69328043e-01 5.18213376e-01 2.05044240e+00 5.18213376e-01 8.39632452e-02 1.45617634e-01 2.05044240e+00 1.45617634e-01 -3.06538525e+01
-1.74585593e+00 1.21816441e+00 1.34564151e+00 1.21816441e+00 6.96423471e-01 -7.61429667e-01 1.34564151e+00 -7.61429667e-01 -3.11444330e+01
8.39329034e-01 -2.04491042e+00 2.66972154e-01 -2.04491042e+00 -9.44044620e-01 1.78081456e+00 2.66972154e-01 1.78081456e+00 -2.96009803e+01
7.34906471e+00 1.53932869e+00 1.34425136e+00 1.53932869e+00 1.62228139e+00 -3.38210666e+00 1.34425136e+00 -3.38210666e+00 -2.39088192e+01
6.66520715e+00 -1.52472529e+00 -1.41161248e+00 -1.52472529e+00 3.95050168e-01 -1.06215000e+00 -1.41161248e+00 -1.06215000e+00 -2.37556000e+01
-1.04038734e+01 5.99484015e+00 -1.55102396e+00 5.99484015e+00 -2.86021829e+00 -1.19286108e+01 -1.55102396e+00 -1.19286108e+01 8.14797401e+00
-3.19715333e+00 -4.67005253e+00 1.09789193e+00 -4.67005253e+00 -4.00327682e+00 -1.52127218e+01 1.09789193e+00 -1.52127218e+01 2.31575656e+00
-4.48715802e-01 -1.66663843e+00 -5.14264509e-01 -1.66663843e+00 -7.82489359e-01 2.04843223e+00 -5.14264509e-01 2.04843223e+00 -1.35924453e+00
-3.36809572e+00 -9.43796065e-01 -4.32909876e-01 -9.43796065e-01 3.64403069e-01 6.75741076e-01 -4.32909876e-01 6.75741076e-01 -2.60039524e+00
-2.06274822e-01 -4.21272337e-01 1.97859854e-01 -4.21272337e-01 -1.18549570e-01 -8.22799131e-02 1.97859854e-01 -8.22799131e-02 1.97677925e-01
-1.35388285e-01 -2.08113670e-01 1.76386639e-01 -2.08113670e-01 2.18343079e-01 1.33527979e-01 1.76386639e-01 1.33527979e-01 -2.10112318e-01
9.27398652e-02 -7.51017630e-02 -2.99676299e-01 -7.51017630e-02 2.01330762e-02 -3.49060625e-01 -2.99676299e-01 -3.49060625e-01 -2.40021452e-01
3.02071840e-01 -2.88283199e-01 1.38051242e-01 -2.88283199e-01 -3.65383327e-02 3.59363109e-01 1.38051242e-01 3.59363109e-01 -3.92684460e-01
1.46263021e+00 2.08060397e-01 -8.35118681e-02 2.08060397e-01 -6.45335573e-01 -2.04639733e-02 -8.35118681e-02 -2.04639733e-02 1.06757471e-01
4.35375656e-01 2.28137312e-01 2.53475765e-01 2.28137312e-01 -1.36066024e+00 6.22813031e-02 2.53475765e-01 6.22813031e-02 -4.49558087e-02
-6.88283682e-01 2.21774671e-02 -9.72806439e-02 2.21774671e-02 -2.96696730e-01 -1.18001007e-01 -9.72806439e-02 -1.18001007e-01 3.71619515e-01
-8.94776205e-01 -3.86262536e-01 -2.06399058e-01 -3.86262536e-01 3.26039893e-01 -2.47114226e-02 -2.06399058e-01 -2.47114226e-02 3.78001454e-01
1.62768674e+00 3.99565324e-03 -3.30466777e-04 3.99565324e-03 -5.32466412e+00 4.78919595e-04 -3.30466777e-04 4.78919595e-04 -3.32339211e+01
7.11763397e-01 7.13434070e-01 1.64495502e-03 7.13434070e-01 -3.73870230e+00 6.41673118e-01 1.64495502e-03 6.41673118e-01 -3.28938351e+01
1.88372325e+00 1.90044853e+00 5.99637434e-01 1.90044853e+00 -4.71583539e+00 8.84312898e-01 5.99637434e-01 8.84312898e-01 -3.20014496e+01
2.56748354e+00 5.69345862e-01 2.45499671e-01 5.69345862e-01 -6.30444717e+00 -3.42686661e-04 2.45499671e-01 -3.42686661e-04 -3.27733135e+01
-1.10010687e+00 8.07058722e-01 9.73785296e-04 8.07058722e-01 -4.31114167e-01 1.02660334e+00 9.73785296e-04 1.02660334e+00 -3.14967213e+01
-1.32563082e-01 2.30185610e+00 7.63608903e-01 2.30185610e+00 -7.87261240e-01 1.04843041e+00 7.63608903e-01 1.04843041e+00 -3.04623246e+01
-2.67016327e+00 7.53898144e-01 -5.33878803e-03 7.53898144e-01 2.41056883e+00 7.35833943e-01 -5.33878803e-03 7.35833943e-01 -2.97798586e+01
-1.75083524e+00 1.76650944e+00 6.62326172e-01 1.76650944e+00 2.42812648e+00 1.06755519e+00 6.62326172e-01 1.06755519e+00 -2.86299782e+01