<VTKFile type="UnstructuredGrid" version="0.1" byte_order="LittleEndian">
<UnstructuredGrid>
<Piece NumberOfPoints="191" NumberOfCells="79">
<Points>
<DataArray type="Float64" NumberOfComponents="3" format="ascii">
 1.00895488e+00  5.07056761e+00  1.97006655e+00
 2.01643109e+00  5.06794500e+00  1.97880864e+00
 2.01585937e+00  6.08365536e+00  1.96703637e+00
 1.00649774e+00  6.08089399e+00  1.96139514e+00
 1.00721312e+00  5.07992792e+00  2.95529199e+00
 2.01794910e+00  5.08085585e+00  2.95593691e+00
 2.01379013e+00  6.10174322e+00  2.94099855e+00
 1.00730753e+00  6.08921671e+00  2.94814205e+00
 3.02934504e+00  5.06358862e+00  1.98301196e+00
 3.03205204e+00  6.08181715e+00  1.96764266e+00
 3.03328586e+00  5.07573366e+00  2.95141602e+00
 3.05005622e+00  6.10326052e+00  2.91195989e+00
 5.02888918e+00  5.06804037e+00  2.00001121e+00
 6.02889633e+00  5.07096052e+00  1.99996459e+00
 6.02595663e+00  6.07097530e+00  2.00001073e+00
 5.02593994e+00  6.06804466e+00  2.00003219e+00
 5.02892637e+00  5.06800795e+00  2.99999619e+00
 6.02891254e+00  5.07094765e+00  2.99997592e+00
 6.02597952e+00  6.07093191e+00  2.99999857e+00
 5.02599621e+00  6.06799555e+00  3.00004339e+00
 0.00000000e+00  0.00000000e+00  2.91310954e+00
 1.01634991e+00  0.00000000e+00  2.91177130e+00
 1.01648581e+00  1.01731884e+00  2.91595316e+00
 0.00000000e+00  1.01702917e+00  2.91872334e+00
 0.00000000e+00  0.00000000e+00  3.88346934e+00
 1.02300346e+00  0.00000000e+00  3.88305306e+00
 1.02331913e+00  1.01615477e+00  3.88438940e+00
 0.00000000e+00  1.01553035e+00  3.88774037e+00
 2.03595233e+00  0.00000000e+00  2.90451980e+00
 2.03151107e+00  1.01340115e+00  2.91059947e+00
 2.04436421e+00  0.00000000e+00  3.87899280e+00
 2.04551697e+00  1.01682961e+00  3.87788296e+00
 3.05358124e+00  0.00000000e+00  2.89716196e+00
 3.05382514e+00  1.01036274e+00  2.89938831e+00
 3.06550789e+00  0.00000000e+00  3.87110186e+00
 3.06404352e+00  1.01494145e+00  3.87053680e+00
 4.07487822e+00  0.00000000e+00  2.89013743e+00
 4.07549810e+00  1.01111388e+00  2.88730931e+00
 4.08308506e+00  0.00000000e+00  3.86461782e+00
 4.08278704e+00  1.01188993e+00  3.86087275e+00
 5.09484196e+00  0.00000000e+00  2.88042331e+00
 5.09611082e+00  1.01244426e+00  2.88230991e+00
 5.09869289e+00  0.00000000e+00  3.86123252e+00
 5.09895658e+00  1.01029825e+00  3.85439658e+00
 6.11168480e+00  0.00000000e+00  2.87618756e+00
 6.11375332e+00  1.01088238e+00  2.87858772e+00
 6.11029959e+00  0.00000000e+00  3.85996485e+00
 6.11471844e+00  1.00853062e+00  3.85448623e+00
 1.01046419e+00  2.03186679e+00  2.92713881e+00
 0.00000000e+00  2.03720951e+00  2.92872667e+00
 1.02302015e+00  2.03447866e+00  3.89797068e+00
 0.00000000e+00  2.03484130e+00  3.89959860e+00
 2.02890015e+00  2.03096032e+00  2.91295099e+00
 2.04863262e+00  2.03556466e+00  3.88157392e+00
 3.04916525e+00  2.03456879e+00  2.89257312e+00
 3.06696510e+00  2.03259349e+00  3.85359120e+00
 4.07612371e+00  2.03902936e+00  2.88967657e+00
 4.08001614e+00  2.02718401e+00  3.84596181e+00
 5.09883785e+00  2.03412986e+00  2.88766670e+00
 5.09972572e+00  2.03108120e+00  3.84875727e+00
 6.11770344e+00  2.03078485e+00  2.88545871e+00
 6.11923456e+00  2.02803040e+00  3.84870505e+00
 1.00695086e+00  3.05534744e+00  2.94735909e+00
 0.00000000e+00  3.05430937e+00  2.94296265e+00
 1.01913297e+00  3.05457664e+00  3.91167641e+00
 0.00000000e+00  3.05235982e+00  3.92291307e+00
 2.02564025e+00  3.04927254e+00  2.93003774e+00
 2.05390000e+00  3.05758166e+00  3.87478685e+00
 3.02258968e+00  3.04317212e+00  2.81199527e+00
 3.08037758e+00  3.04713416e+00  3.83240461e+00
 1.00624406e+00  4.06716537e+00  2.95725203e+00
 0.00000000e+00  4.06991196e+00  2.95618415e+00
 1.01219177e+00  4.07356834e+00  3.93973160e+00
 0.00000000e+00  4.07384443e+00  3.93708205e+00
 0.00000000e+00  5.07709408e+00  2.95583797e+00
 1.01303935e+00  5.09191942e+00  3.93907166e+00
 0.00000000e+00  5.08618450e+00  3.93381882e+00
 2.01744032e+00  4.06705046e+00  2.97148728e+00
 2.03479648e+00  4.07789564e+00  3.92525339e+00
 2.03550315e+00  5.08887625e+00  3.93213868e+00
 0.00000000e+00  6.08966780e+00  2.94267607e+00
 1.02010584e+00  6.11374998e+00  3.90840554e+00
 0.00000000e+00  6.11747551e+00  3.91743207e+00
 2.03807306e+00  6.12170553e+00  3.90274549e+00
 3.05597138e+00  5.07940197e+00  3.86805081e+00
 3.08263397e+00  6.09828568e+00  3.87557626e+00
 0.00000000e+00  0.00000000e+00  4.84915781e+00
 1.02923238e+00  0.00000000e+00  4.84735012e+00
 1.03093648e+00  1.01681638e+00  4.85015297e+00
 0.00000000e+00  1.01561069e+00  4.85088825e+00
 2.05343866e+00  0.00000000e+00  4.84522676e+00
 2.05722260e+00  1.02018368e+00  4.84551096e+00
 3.07268548e+00  0.00000000e+00  4.84231901e+00
 3.07511806e+00  1.02178109e+00  4.83992338e+00
 4.08808661e+00  0.00000000e+00  4.83783102e+00
 4.08737183e+00  1.01963592e+00  4.83641624e+00
 5.10079336e+00  0.00000000e+00  4.83684254e+00
 5.09897947e+00  1.01649427e+00  4.83418608e+00
 6.11135721e+00  0.00000000e+00  4.83710623e+00
 6.11211061e+00  1.01702392e+00  4.83522177e+00
 1.03718197e+00  2.03807449e+00  4.85261440e+00
 0.00000000e+00  2.03333402e+00  4.85871077e+00
 2.06534743e+00  2.04210854e+00  4.84251022e+00
 3.08223987e+00  2.04058266e+00  4.83119965e+00
 4.09067392e+00  2.03567219e+00  4.82214403e+00
 5.09665346e+00  2.03032255e+00  4.81653929e+00
 6.10365963e+00  2.03010654e+00  4.81733036e+00
 1.03874886e+00  3.05088449e+00  4.87609863e+00
 0.00000000e+00  3.05854368e+00  4.88697433e+00
 2.07493591e+00  3.05313611e+00  4.83822155e+00
 3.09400821e+00  3.04936981e+00  4.81567574e+00
 4.08658838e+00  3.02049375e+00  3.79438972e+00
 4.09960604e+00  3.04271746e+00  4.80983162e+00
 1.03901350e+00  4.06838274e+00  4.91203737e+00
 0.00000000e+00  4.06128836e+00  4.89750957e+00
 2.08334994e+00  4.07102108e+00  4.84860039e+00
 1.03452206e+00  5.10824966e+00  4.88039541e+00
 0.00000000e+00  5.11043358e+00  4.88291550e+00
 1.03974903e+00  6.15008068e+00  4.86665440e+00
 0.00000000e+00  6.14826965e+00  4.87121058e+00
 2.06153178e+00  5.09615088e+00  4.87081909e+00
 2.09184265e+00  6.12743187e+00  4.86173391e+00
 3.09089136e+00  5.06793737e+00  4.82426691e+00
 3.12369299e+00  6.07778740e+00  4.83535862e+00
 4.04367256e+00  5.05776405e+00  3.77306318e+00
 4.08036661e+00  6.06047916e+00  3.79845810e+00
 4.11303806e+00  5.04302406e+00  4.80923223e+00
 4.12134314e+00  6.04450178e+00  4.80966187e+00
 5.11352015e+00  5.03618288e+00  3.80939198e+00
 6.11349010e+00  5.02912474e+00  3.80940366e+00
 6.12053871e+00  6.02911282e+00  3.80941272e+00
 5.12052679e+00  6.03619432e+00  3.80945778e+00
 5.11347437e+00  5.03617859e+00  4.80939054e+00
 6.11349916e+00  5.02913380e+00  4.80942249e+00
 6.12052250e+00  6.02910423e+00  4.80940580e+00
 5.12062979e+00  6.03607368e+00  4.80945635e+00
 0.00000000e+00  0.00000000e+00  5.80942583e+00
 1.03130960e+00  0.00000000e+00  5.80942583e+00
 1.03483319e+00  1.01923931e+00  5.80942583e+00
 0.00000000e+00  1.01639533e+00  5.80942583e+00
 2.05788922e+00  0.00000000e+00  5.80942583e+00
 2.06063509e+00  1.02298772e+00  5.80942583e+00
 3.07565022e+00  0.00000000e+00  5.80942583e+00
 3.07915020e+00  1.02464998e+00  5.80942583e+00
 4.08881521e+00  0.00000000e+00  5.80942583e+00
 4.09040737e+00  1.02475452e+00  5.80942583e+00
 5.10145950e+00  0.00000000e+00  5.80942583e+00
 5.09926367e+00  1.02252543e+00  5.80942583e+00
 6.11479187e+00  0.00000000e+00  5.80942583e+00
 6.10786104e+00  1.02551258e+00  5.80942583e+00
 1.04331648e+00  2.03332973e+00  5.80942583e+00
 0.00000000e+00  2.03102088e+00  5.80942583e+00
 2.07340431e+00  2.04177189e+00  5.80942583e+00
 3.08728600e+00  2.04424024e+00  5.80942583e+00
 4.09543037e+00  2.04054022e+00  5.80942583e+00
 5.09653950e+00  2.03514051e+00  5.80942583e+00
 6.09916925e+00  2.03285074e+00  5.80942583e+00
 1.05200541e+00  3.07210541e+00  5.80942583e+00
 0.00000000e+00  3.07677412e+00  5.80942583e+00
 2.08719802e+00  3.05984378e+00  5.80942583e+00
 3.09978485e+00  3.05203509e+00  5.80942583e+00
 4.09981632e+00  3.04310441e+00  5.80942583e+00
 5.09991217e+00  3.03571820e+00  4.80899429e+00
 5.10027552e+00  3.03594017e+00  5.80942583e+00
 6.10071468e+00  3.03022742e+00  4.80878210e+00
 6.10084534e+00  3.03113866e+00  5.80942583e+00
 3.10686350e+00  4.05064726e+00  4.80505180e+00
 3.10935521e+00  4.05296612e+00  5.80942583e+00
 2.10809374e+00  4.06687546e+00  5.80942583e+00
 4.10670519e+00  4.04266214e+00  4.80962420e+00
 4.10677910e+00  4.04283810e+00  5.80942583e+00
 5.10650921e+00  4.03622389e+00  4.80941200e+00
 5.10656404e+00  4.03613424e+00  5.80942583e+00
 6.10645914e+00  4.02950859e+00  4.80940390e+00
 6.10640526e+00  4.02932405e+00  5.80942583e+00
 0.00000000e+00  4.04566050e+00  5.80942583e+00
 1.06553805e+00  4.05594254e+00  5.80942583e+00
 1.04953814e+00  5.12257767e+00  5.80942583e+00
 0.00000000e+00  5.12563515e+00  5.80942583e+00
 5.11342669e+00  5.03616905e+00  5.80942583e+00
 4.11341810e+00  5.04313517e+00  5.80942583e+00
 6.11352396e+00  5.02916479e+00  5.80942583e+00
 1.05305278e+00  6.15811872e+00  5.80942583e+00
 0.00000000e+00  6.16180182e+00  5.80942583e+00
 2.07484007e+00  5.09917402e+00  5.80942583e+00
 2.11267638e+00  6.12485361e+00  5.80942583e+00
 3.10044551e+00  5.05972290e+00  5.80942583e+00
 3.13088918e+00  6.07169008e+00  5.80942583e+00
 4.12193632e+00  6.04371834e+00  5.80942583e+00
 5.12063789e+00  6.03599501e+00  5.80942583e+00
 6.12050486e+00  6.02912235e+00  5.80942583e+00
</DataArray>
</Points>
<PointData Tensors="Stress_Components,Plastic_strain_components" Vevtors="Spatial_displacement,Reaction_force" Scalars="Equivalent_plastic_strain,Stress_Mises,Stress_Max_Principal,Stress_Mid_Principal,Stress_Min_Principal,Stress_Pressure,Stress_Tresca,Stress_Third_Invariant,Plastic_strain_Max_Principal,Plastic_strain_Min_Principal">
<DataArray type="Float32" Name="Stress_Components" NumberOfComponents="9" format="ascii">
5.89577819e+00 -9.43176971e-01 4.10666317e-01 -9.43176971e-01 4.24256027e+00 9.19525300e-01 4.10666317e-01 9.19525300e-01 -1.82457330e+01
1.11770388e+00 -2.29440660e+00 7.07915209e-01 -2.29440660e+00 5.79872668e-01 2.29629846e+00 7.07915209e-01 2.29629846e+00 -2.63039877e+01
-4.42910981e+00 4.69715584e-01 1.05578642e+00 4.69715584e-01 -5.75675964e-02 -4.93655775e-01 1.05578642e+00 -4.93655775e-01 -3.46872854e+01
1.35469609e+00 -2.23345431e-01 -5.77366493e-01 -2.23345431e-01 3.19572353e+00 -4.07963499e-01 -5.77366493e-01 -4.07963499e-01 -2.51728973e+01
1.49697088e+01 4.50613933e-01 1.59577054e+00 4.50613933e-01 1.65608069e+01 -4.06940350e-01 1.59577054e+00 -4.06940350e-01 4.28854218e+00
1.41300498e+01 -9.20854300e-01 8.81833230e-01 -9.20854300e-01 1.65700111e+01 1.53092313e+00 8.81833230e-01 1.53092313e+00 1.45496505e+00
-1.22578666e+01 5.43950945e-01 7.60663383e-01 5.43950945e-01 -4.61931515e+00 -1.13385133e+00 7.60663383e-01 -1.13385133e+00 -4.64029224e+01
1.61979789e+00 1.46023588e+00 1.68200117e+00 1.46023588e+00 3.08176005e+00 2.46260162e+00 1.68200117e+00 2.46260162e+00 -2.39585187e+01
-6.56860518e+00 4.55719054e-01 -2.73220291e+00 4.55719054e-01 -7.26733470e+00 4.38767748e+00 -2.73220291e+00 4.38767748e+00 -4.45011170e+01
-4.25616398e+01 4.01745439e-02 -4.82639335e-01 4.01745439e-02 -3.79377346e+01 4.29246140e+00 -4.82639335e-01 4.29246140e+00 -1.18014473e+02
-4.60637496e+01 4.85315704e+00 -1.85964319e+01 4.85315704e+00 -4.69156148e+01 -1.73537902e+00 -1.85964319e+01 -1.73537902e+00 -1.24382493e+02
-3.48609536e+01 3.21651983e+00 -8.83564711e+00 3.21651983e+00 -4.93499222e+01 -2.40405980e+00 -8.83564711e+00 -2.40405980e+00 -1.17846846e+02
1.13254353e-01 -6.14845991e-01 -1.51817426e-02 -6.14845991e-01 -1.22439861e-02 -1.01974970e-01 -1.51817426e-02 -1.01974970e-01 -5.26243076e-01
-2.22802147e-01 -4.10948709e-01 -2.34554231e-01 -4.10948709e-01 1.04316872e-01 -7.78023899e-02 -2.34554231e-01 -7.78023899e-02 -3.06764979e-01
2.88358385e-01 -1.84602737e-01 2.51367025e-01 -1.84602737e-01 2.07579341e-01 2.97566226e-01 2.51367025e-01 2.97566226e-01 -9.21159744e-01
1.98605032e-01 -3.88568938e-01 -1.53775424e-01 -3.88568938e-01 -3.34778804e-01 -2.88192540e-01 -1.53775424e-01 -2.88192540e-01 -2.89132297e-01
1.64232373e-01 1.95640489e-01 3.07539612e-01 1.95640489e-01 2.02227727e-01 3.45767379e-01 3.07539612e-01 3.45767379e-01 -7.39128813e-02
-1.56309798e-01 1.34785339e-01 2.10896298e-01 1.34785339e-01 -2.49081045e-01 -8.03822204e-02 2.10896298e-01 -8.03822204e-02 6.98014021e-01
8.54544044e-02 6.93631992e-02 -4.29766417e-01 6.93631992e-02 1.14483967e-01 -4.51458246e-01 -4.29766417e-01 -4.51458246e-01 9.26238596e-02
-2.78150469e-01 1.30213648e-01 -4.22552675e-02 1.30213648e-01 -1.18399277e-01 2.40413278e-01 -4.22552675e-02 2.40413278e-01 6.89087629e-01
-2.29286671e-01 6.14376366e-03 1.22359782e+00 6.14376366e-03 3.57996345e-01 -1.67765521e-01 1.22359782e+00 -1.67765521e-01 -2.98292103e+01
2.55466849e-01 1.84652667e-01 7.36265019e-01 1.84652667e-01 4.05545533e-02 3.70847553e-01 7.36265019e-01 3.70847553e-01 -2.96316953e+01
1.43778840e+00 -1.10716575e+00 1.20726372e+00 -1.10716575e+00 1.88682706e+00 4.49153131e-01 1.20726372e+00 4.49153131e-01 -2.61757467e+01
-6.41637981e-01 1.41696084e-01 1.23892360e+00 1.41696084e-01 8.07313517e-01 -6.90804332e-01 1.23892360e+00 -6.90804332e-01 -2.97461910e+01
3.38736989e+00 -9.79567040e-03 1.10708874e+00 -9.79567040e-03 6.47252440e-01 -4.66875210e-02 1.10708874e+00 -4.66875210e-02 -2.54726105e+01
8.35734859e-01 1.38457472e-01 4.99158159e-01 1.38457472e-01 -1.15207906e+00 1.11830524e+00 4.99158159e-01 1.11830524e+00 -3.01826878e+01
1.82950152e+00 2.33634869e-01 1.37813095e+00 2.33634869e-01 -2.17153192e-01 6.82216916e-01 1.37813095e+00 6.82216916e-01 -2.80258347e+01
1.82163656e-01 3.22260581e-01 1.52182248e+00 3.22260581e-01 -2.36971036e+00 -7.13728748e-01 1.52182248e+00 -7.13728748e-01 -3.21116829e+01
3.26496306e+00 -1.25069778e+00 7.91382492e-01 -1.25069778e+00 9.15867805e-01 1.37462283e-01 7.91382492e-01 1.37462283e-01 -2.53210673e+01
3.79815562e+00 -1.53649100e+00 1.37400567e+00 -1.53649100e+00 2.56346035e+00 9.22213938e-01 1.37400567e+00 9.22213938e-01 -2.26062669e+01
1.55229759e+00 2.36012228e-01 1.76842391e-01 2.36012228e-01 1.03744864e-01 7.51400873e-01 1.76842391e-01 7.51400873e-01 -2.81824932e+01
-8.34226757e-01 1.82174804e-01 1.36505601e+00 1.82174804e-01 -1.22316646e+00 1.89398505e+00 1.36505601e+00 1.89398505e+00 -3.19998032e+01
5.58203578e+00 1.35694671e-01 2.62311801e-01 1.35694671e-01 1.75514260e+00 8.33218455e-01 2.62311801e-01 8.33218455e-01 -2.17402468e+01
6.27931380e+00 -5.63020539e-01 -1.00572897e-01 -5.63020539e-01 3.37615494e+00 -1.95367164e-01 -1.00572897e-01 -1.95367164e-01 -1.92462018e+01
2.99956648e+00 -5.97932339e-01 4.48780200e-02 -5.97932339e-01 9.35638867e-01 1.03428248e+00 4.48780200e-02 1.03428248e+00 -2.56399550e+01
1.65076934e-01 -7.56041478e-01 -2.60839224e-01 -7.56041478e-01 -7.08823532e-01 7.20373506e-01 -2.60839224e-01 7.20373506e-01 -3.03834354e+01
7.89431652e+00 3.05868160e-01 -4.28462312e-01 3.05868160e-01 3.67749339e+00 8.68663508e-02 -4.28462312e-01 8.68663508e-02 -1.71146389e+01
9.35548648e-01 3.66623877e-01 -9.74382028e-01 3.66623877e-01 -1.63218051e+00 1.03983620e-01 -9.74382028e-01 1.03983620e-01 -3.04103016e+01
3.40833372e+00 -2.47534502e-01 -9.96082574e-01 -2.47534502e-01 4.44910318e-01 7.71789595e-01 -9.96082574e-01 7.71789595e-01 -2.56954112e+01
7.22402471e+00 -9.65810016e-01 -5.75264961e-01 -9.65810016e-01 5.22003890e+00 -5.79115366e-01 -5.75264961e-01 -5.79115366e-01 -1.64004900e+01
1.04622391e+01 1.15375883e-01 3.32088396e-01 1.15375883e-01 7.43296584e+00 -4.39712752e-01 3.32088396e-01 -4.39712752e-01 -1.04317212e+01
4.12186489e+00 2.02429140e-01 -2.14121515e-01 2.02429140e-01 1.76515138e+00 8.44549462e-02 -2.14121515e-01 8.44549462e-02 -2.34989958e+01
8.11925638e+00 2.73764487e-02 -1.43850416e+00 2.73764487e-02 6.54935654e+00 -3.24214566e-02 -1.43850416e+00 -3.24214566e-02 -1.40234661e+01
4.45419969e+00 -3.36676186e-01 -1.10631424e+00 -3.36676186e-01 3.31056714e+00 -5.15641497e-01 -1.10631424e+00 -5.15641497e-01 -2.12788539e+01
1.45851860e+01 2.43826173e-02 3.10013473e-01 2.43826173e-02 1.24063954e+01 -6.56350076e-01 3.10013473e-01 -6.56350076e-01 -5.39735317e-01
1.15555536e+01 -6.98736170e-02 -3.93645508e-01 -6.98736170e-02 9.66903539e+00 -4.56156429e-01 -3.93645508e-01 -4.56156429e-01 -6.92447019e+00
1.26181593e+01 1.16844851e+00 -8.87769043e-01 1.16844851e+00 1.19102137e+01 -7.89066881e-01 -8.87769043e-01 -7.89066881e-01 -3.37470531e+00
9.36173955e+00 6.22475600e-01 -4.38524246e-01 6.22475600e-01 7.80151939e+00 -5.10801010e-01 -4.38524246e-01 -5.10801010e-01 -1.11383390e+01
8.61822784e-01 -1.78146409e+00 2.95704536e+00 -1.78146409e+00 4.20314541e+00 1.93983948e-01 2.95704536e+00 1.93983948e-01 -2.29447643e+01
2.28809595e-01 -1.37238969e+00 2.20841791e+00 -1.37238969e+00 5.05804638e+00 -3.75155631e-01 2.20841791e+00 -3.75155631e-01 -2.34652007e+01
-4.35375950e+00 -6.29431382e-03 4.21666256e+00 -6.29431382e-03 -6.68039215e+00 1.75694542e+00 4.21666256e+00 1.75694542e+00 -4.07700450e+01
1.30677849e-01 -1.34284284e-01 2.72701898e+00 -1.34284284e-01 -7.74457633e-01 -3.13536949e-01 2.72701898e+00 -3.13536949e-01 -3.02976925e+01
4.49287844e+00 1.25374465e-01 2.76740759e+00 1.25374465e-01 3.08400597e+00 8.83423396e-01 2.76740759e+00 8.83423396e-01 -2.45526069e+01
-2.00351856e+00 1.05777087e+00 9.74398199e-01 1.05777087e+00 -2.34489176e+00 -7.06814423e-01 9.74398199e-01 -7.06814423e-01 -3.41712034e+01
-3.88828934e+01 -2.24933665e+00 -9.94302604e+00 -2.24933665e+00 -3.92221909e+01 -1.00908597e+00 -9.94302604e+00 -1.00908597e+00 -1.08015962e+02
2.64449229e+00 1.11963577e+00 -3.34370893e+00 1.11963577e+00 4.37708507e+00 6.11515288e-01 -3.34370893e+00 6.11515288e-01 -2.28619605e+01
-2.91042686e+01 -1.59679323e-01 -3.40174121e+00 -1.59679323e-01 -2.58818655e+01 2.03481343e+00 -3.40174121e+00 2.03481343e+00 -8.90271540e+01
-1.55574742e+01 -9.14883995e-01 -1.13961316e+01 -9.14883995e-01 -2.01397048e+01 1.24907975e+00 -1.13961316e+01 1.24907975e+00 -5.99455372e+01
-1.69724841e+01 -3.64796784e-01 -2.69667193e-01 -3.64796784e-01 -1.54126611e+01 1.63595144e+00 -2.69667193e-01 1.63595144e+00 -6.49584379e+01
-2.25772936e+01 3.37414600e-01 -3.80336690e+00 3.37414600e-01 -1.97416449e+01 -5.75537488e-01 -3.80336690e+00 -5.75537488e-01 -7.55437145e+01
-7.42437977e+00 3.85990385e-02 -4.78903741e-01 3.85990385e-02 -4.62018043e+00 3.74451980e-01 -4.78903741e-01 3.74451980e-01 -4.29472256e+01
-2.09147005e+01 -3.37762624e-01 -3.55556703e+00 -3.37762624e-01 -1.72260075e+01 -3.62226246e+00 -3.55556703e+00 -3.62226246e+00 -6.99560471e+01
-4.27124773e+00 -9.43439814e-01 4.82815668e+00 -9.43439814e-01 4.29208108e-01 8.28680911e-01 4.82815668e+00 8.28680911e-01 -3.15467419e+01
7.35834000e+00 5.27291819e-01 2.76858161e+00 5.27291819e-01 1.14224219e+01 -1.80700533e-01 2.76858161e+00 -1.80700533e-01 -8.64757085e+00
-1.53458132e+00 -5.76789583e-01 4.23564270e+00 -5.76789583e-01 -2.70697062e+00 4.17152215e-01 4.23564270e+00 4.17152215e-01 -3.29637538e+01
7.49832183e+00 2.22649489e-01 2.70581099e+00 2.22649489e-01 9.13352263e+00 -5.88524304e-01 2.70581099e+00 -5.88524304e-01 -1.15386733e+01
-5.77100668e+01 -7.16220272e+00 1.18486822e+01 -7.16220272e+00 -5.25527401e+01 -1.26381271e+01 1.18486822e+01 -1.26381271e+01 -1.35359478e+02
-1.69255670e+01 1.26304098e+00 7.18944931e-01 1.26304098e+00 -2.30044155e+01 -4.54122517e+00 7.18944931e-01 -4.54122517e+00 -7.22513985e+01
-8.50618935e+00 -7.19146967e+00 -2.35166340e+01 -7.19146967e+00 -6.00564623e+00 -1.02797165e+01 -2.35166340e+01 -1.02797165e+01 1.41340466e+01
1.77249866e+01 -1.57339795e+00 -3.09189701e+00 -1.57339795e+00 1.83584857e+01 -4.43388033e+00 -3.09189701e+00 -4.43388033e+00 8.28403187e+00
9.45273827e+00 -2.40606959e-01 7.87212423e-01 -2.40606959e-01 1.15730239e+01 1.55994933e+00 7.87212423e-01 1.55994933e+00 -6.85067599e+00
7.36839449e+00 -8.66102040e-01 2.63028521e+00 -8.66102040e-01 1.03702464e+01 -1.01589952e-02 2.63028521e+00 -1.01589952e-02 -9.37747899e+00
1.76044881e+01 -4.38266192e-01 1.27325976e+00 -4.38266192e-01 2.03656170e+01 1.20248926e+00 1.27325976e+00 1.20248926e+00 1.24868390e+01
1.52437214e+01 -5.58529735e-01 1.78722177e+00 -5.58529735e-01 1.67604958e+01 7.62199432e-01 1.78722177e+00 7.62199432e-01 4.84058011e+00
9.11106524e+00 5.82921844e-01 -3.30658928e-02 5.82921844e-01 1.07249696e+01 5.79991635e-01 -3.30658928e-02 5.79991635e-01 -8.29274940e+00
4.89164206e+00 1.13516576e+00 2.93758942e-01 1.13516576e+00 6.39666889e+00 2.33992652e+00 2.93758942e-01 2.33992652e+00 -1.69175610e+01
5.95278704e+00 1.47904173e+00 3.79456792e-01 1.47904173e+00 8.90176690e+00 6.67164143e-01 3.79456792e-01 6.67164143e-01 -1.34179118e+01
-2.36145900e+01 3.56651917e-01 4.18179336e+00 3.56651917e-01 -2.02877183e+01 1.39785581e+01 4.18179336e+00 1.39785581e+01 -6.54647031e+01
-6.02265816e+01 -2.26677877e+00 1.40262399e+01 -2.26677877e+00 -6.62469273e+01 6.19684410e+00 1.40262399e+01 6.19684410e+00 -1.63304375e+02
-1.20329263e+01 -2.33790832e+00 -3.00528259e+00 -2.33790832e+00 -6.98912745e+00 7.75539094e-01 -3.00528259e+00 7.75539094e-01 -4.85587471e+01
-2.45491171e+00 -4.90755811e-02 6.47011101e-01 -4.90755811e-02 1.57628822e+00 1.60472137e+00 6.47011101e-01 1.60472137e+00 -3.04982861e+01
8.99129868e+00 1.26858829e+00 -7.06991337e-01 1.26858829e+00 9.22221994e+00 6.50262818e-01 -7.06991337e-01 6.50262818e-01 -1.07487860e+01
-5.23799181e+00 -1.45957178e+00 2.59257916e+00 -1.45957178e+00 7.02066422e-01 -8.83669347e-01 2.59257916e+00 -8.83669347e-01 -3.44342996e+01
-1.32512586e+01 -2.37472042e+00 -3.43214393e+00 -2.37472042e+00 -1.15390897e+01 5.68894824e+00 -3.43214393e+00 5.68894824e+00 -5.33004272e+01
-5.23186671e+01 6.45296780e+00 -4.59290942e-02 6.45296780e+00 -3.65157560e+01 -2.57307030e+01 -4.59290942e-02 -2.57307030e+01 -9.64535077e+01
-1.36841695e+01 -2.03060921e+00 -2.42089278e+00 -2.03060921e+00 -1.35871142e+01 -8.89398162e+00 -2.42089278e+00 -8.89398162e+00 -4.72648872e+01
2.39015251e+00 -1.22000966e-02 3.13796982e-01 -1.22000966e-02 -2.74569812e+00 -2.85736978e-01 3.13796982e-01 -2.85736978e-01 -2.99448223e+01
6.61883831e-01 3.62657420e-01 2.86672719e-01 3.62657420e-01 -2.84909141e+00 7.47888800e-01 2.86672719e-01 7.47888800e-01 -3.21043906e+01
6.53900847e-01 1.20867415e+00 8.24445121e-01 1.20867415e+00 -2.87572330e+00 5.79983255e-01 8.24445121e-01 5.79983255e-01 -3.20198581e+01
2.00464723e+00 3.01156092e-01 8.51392999e-01 3.01156092e-01 -3.11288258e+00 -2.62492094e-01 8.51392999e-01 -2.62492094e-01 -3.07156370e+01
-3.34846455e+00 1.00884061e+00 -2.78911904e-01 1.00884061e+00 -3.04314375e+00 1.21603085e+00 -2.78911904e-01 1.21603085e+00 -3.67542348e+01
-3.30985337e+00 1.94255832e+00 5.39671905e-01 1.94255832e+00 -2.81384563e+00 1.02530780e+00 5.39671905e-01 1.02530780e+00 -3.62038271e+01
-4.60958588e+00 6.85933486e-01 -3.04779876e-01 6.85933486e-01 -1.92040294e+00 3.90703584e-01 -3.04779876e-01 3.90703584e-01 -3.70050998e+01
-6.42478635e+00 1.09712131e+00 -1.14047885e-01 1.09712131e+00 -2.15096001e+00 1.47640653e+00 -1.14047885e-01 1.47640653e+00 -3.86947311e+01
-3.21961507e+00 -5.97646043e-01 -1.19998212e-01 -5.97646043e-01 -5.59026226e-02 3.19102410e-01 -1.19998212e-01 3.19102410e-01 -3.34562116e+01
-2.69045470e+00 -5.42265811e-01 -7.09544301e-01 -5.42265811e-01 1.32912628e+00 2.11075193e-01 -7.09544301e-01 2.11075193e-01 -3.10375333e+01
-4.89685357e-01 -7.30457321e-01 -5.95196612e-01 -7.30457321e-01 2.94669908e+00 8.39839799e-02 -5.95196612e-01 8.39839799e-02 -2.71689324e+01
1.73246199e+00 -1.26716701e+00 -1.68327057e+00 -1.26716701e+00 3.44792584e+00 -2.47996962e-01 -1.68327057e+00 -2.47996962e-01 -2.39362742e+01
-1.21969974e+00 2.75959119e-01 -2.37649992e-01 2.75959119e-01 3.90937835e+00 9.98158455e-02 -2.37649992e-01 9.98158455e-02 -2.68235817e+01
-3.39054823e-01 -1.44784912e+00 -8.22285369e-01 -1.44784912e+00 1.56488121e+00 -1.44517577e+00 -8.22285369e-01 -1.44517577e+00 -2.80272915e+01
-2.13687968e+00 1.90934837e+00 1.78173677e+00 1.90934837e+00 -7.66681004e+00 1.38843639e+00 1.78173677e+00 1.38843639e+00 -3.96981788e+01
-1.63185573e+00 9.35671642e-01 2.10501441e+00 9.35671642e-01 -7.60782051e+00 -5.77739120e-01 2.10501441e+00 -5.77739120e-01 -3.91986103e+01
2.18685031e-01 2.19378603e+00 2.63064953e-01 2.19378603e+00 -6.18927896e-01 3.90065255e-01 2.63064953e-01 3.90065255e-01 -3.00592712e+01
4.98150250e+00 1.97592445e+00 -3.05307568e+00 1.97592445e+00 5.72737107e+00 -3.57431605e-01 -3.05307568e+00 -3.57431605e-01 -1.67150505e+01
5.84477370e+00 6.08640943e-01 -3.21387325e+00 6.08640943e-01 8.62567500e+00 -2.98181870e-01 -3.21387325e+00 -2.98181870e-01 -1.42616639e+01
-7.92987506e-01 -1.26380980e+00 -4.72593045e+00 -1.26380980e+00 2.62347886e+00 -1.97218745e+00 -4.72593045e+00 -1.97218745e+00 -2.73031270e+01
-2.49926694e+00 -4.09956090e+00 -7.00579786e+00 -4.09956090e+00 -5.17050902e+00 -4.38440315e+00 -7.00579786e+00 -4.38440315e+00 -3.44923264e+01
-1.03308887e+01 1.55793875e-02 6.27476758e+00 1.55793875e-02 -2.04011046e+01 -1.36289093e+00 6.27476758e+00 -1.36289093e+00 -6.03436963e+01
-2.04770250e+01 -1.99049791e+00 7.70831434e+00 -1.99049791e+00 -3.00510941e+01 -2.51455339e+00 7.70831434e+00 -2.51455339e+00 -8.17602857e+01
4.98482943e+00 1.88197954e+00 3.64792933e-01 1.88197954e+00 -1.49063579e+00 -3.20814348e+00 3.64792933e-01 -3.20814348e+00 -2.47694529e+01
1.93013890e+01 2.70709466e+00 -4.32737803e+00 2.70709466e+00 1.68069332e+01 4.77556338e-01 -4.32737803e+00 4.77556338e-01 1.08674088e+01
1.28699458e+00 -7.17855692e+00 -1.00496244e+01 -7.17855692e+00 -7.81687641e+00 -1.12103786e+01 -1.00496244e+01 -1.12103786e+01 1.44267368e+01
1.69779051e+01 9.77515712e-01 -1.80788900e+00 9.77515712e-01 1.53768171e+01 -4.56516696e+00 -1.80788900e+00 -4.56516696e+00 9.79644108e+00
-1.21319064e+01 3.92814949e-02 9.19995546e-01 3.92814949e-02 -1.42794311e+01 6.24988341e+00 9.19995546e-01 6.24988341e+00 -5.36020370e+01
-6.35999163e+00 9.86539185e-01 -2.87361145e+00 9.86539185e-01 -9.21915690e+00 3.56013529e+00 -2.87361145e+00 3.56013529e+00 -4.60376937e+01
-5.05087910e+01 -4.05722073e+00 5.13056362e+00 -4.05722073e+00 -7.52323341e+01 -1.05992436e+01 5.13056362e+00 -1.05992436e+01 -1.64203423e+02
-1.37618713e+01 -3.00378636e-01 -8.82412861e-01 -3.00378636e-01 -1.01760443e+01 3.95536910e+00 -8.82412861e-01 3.95536910e+00 -5.52976583e+01
-3.06526470e+00 -2.05583377e-01 2.82458686e+00 -2.05583377e-01 -8.61710906e-01 1.38206702e-01 2.82458686e+00 1.38206702e-01 -3.42251453e+01
-1.26219130e+00 -6.07965752e-01 1.28104338e+00 -6.07965752e-01 -3.96847510e+00 2.19870051e+00 1.28104338e+00 2.19870051e+00 -3.51741753e+01
2.48058128e+00 1.05282567e-01 2.17899334e+00 1.05282567e-01 1.39532375e+00 -1.45736906e+00 2.17899334e+00 -1.45736906e+00 -2.53131917e+01
-2.15643425e+01 1.48128685e+00 -1.22004645e+00 1.48128685e+00 -2.55022593e+01 -4.97858688e+00 -1.22004645e+00 -4.97858688e+00 -7.92618625e+01
-7.30352211e+00 -1.85623556e+00 -2.14296788e+00 -1.85623556e+00 -1.59825940e+01 5.56927548e+00 -2.14296788e+00 5.56927548e+00 -5.19728687e+01
1.96191424e+01 1.65318349e+00 2.07843870e-01 1.65318349e+00 8.15150070e+00 4.70725477e+00 2.07843870e-01 4.70725477e+00 -8.29388332e+00
6.51510501e+00 -1.89055155e+00 9.69873503e-01 -1.89055155e+00 1.51768346e+01 -7.76614983e-01 9.69873503e-01 -7.76614983e-01 -6.13874722e+00
6.13072205e+01 -2.43012965e-01 1.42125487e+00 -2.43012965e-01 4.97746277e+01 1.22316580e+01 1.42125487e+00 1.22316580e+01 6.35532417e+01
5.00579109e+01 1.28316331e+00 1.16691053e+00 1.28316331e+00 4.21733513e+01 1.02400837e+01 1.16691053e+00 1.02400837e+01 6.17983780e+01
6.21062016e+00 -4.41996861e+00 -1.51667983e+00 -4.41996861e+00 3.24965203e+00 1.11857605e+00 -1.51667983e+00 1.11857605e+00 9.04972002e-01
4.66800372e+00 -5.96133578e+00 -7.64339864e-01 -5.96133578e+00 1.44330794e+01 -6.04519765e+00 -7.64339864e-01 -6.04519765e+00 8.32235813e+00
-8.28905582e-01 -1.07695031e+00 1.27544832e+00 -1.07695031e+00 9.17460620e-01 -6.98836088e-01 1.27544832e+00 -6.98836088e-01 -6.64673805e-01
-7.74905622e-01 -2.06591487e-01 3.79693687e-01 -2.06591487e-01 -2.31996346e-02 4.34025347e-01 3.79693687e-01 4.34025347e-01 2.22032860e-01
7.43446350e-01 -7.03821123e-01 1.74854696e-02 -7.03821123e-01 -2.45807618e-01 -1.26187491e+00 1.74854696e-02 -1.26187491e+00 -1.07369089e+00
3.32868099e-01 -1.57450104e+00 -1.13514447e+00 -1.57450104e+00 3.38447899e-01 1.22631228e+00 -1.13514447e+00 1.22631228e+00 -1.24741566e+00
6.63545711e+00 2.94656429e+00 9.77560437e-01 2.94656429e+00 -2.19107041e+00 1.45375095e+00 9.77560437e-01 1.45375095e+00 -6.67912614e-01
1.45292427e+00 -3.48158787e-01 3.86960795e-01 -3.48158787e-01 -5.60760562e+00 1.07005441e+00 3.86960795e-01 1.07005441e+00 -2.56710202e-01
-3.24248493e+00 1.12794322e+00 -2.33067203e-01 1.12794322e+00 -3.82244885e-02 -1.40042305e+00 -2.33067203e-01 -1.40042305e+00 4.60481893e-01
-5.07342982e+00 -3.00407950e+00 -8.28722298e-01 -3.00407950e+00 1.97296953e+00 -1.38120914e+00 -8.28722298e-01 -1.38120914e+00 3.16843442e+00
1.52476704e+00 -1.42206289e-02 -6.49870187e-03 -1.42206289e-02 -3.82693815e+00 1.16777886e-03 -6.49870187e-03 1.16777886e-03 -3.20282440e+01
5.64835668e-01 5.97013324e-01 -1.22913904e-02 5.97013324e-01 -2.88041538e+00 4.69074920e-01 -1.22913904e-02 4.69074920e-01 -3.22777510e+01
-5.67609191e-01 1.76285833e+00 4.58924115e-01 1.76285833e+00 -5.24198353e+00 7.68383048e-01 4.58924115e-01 7.68383048e-01 -3.56836581e+01
1.84399271e+00 4.30425286e-01 3.20476294e-01 4.30425286e-01 -4.68681240e+00 -1.00422725e-02 3.20476294e-01 -1.00422725e-02 -3.23967867e+01
-4.39782780e+00 6.30976230e-01 -1.00102187e-02 6.30976230e-01 -3.23378193e+00 1.18040633e+00 -1.00102187e-02 1.18040633e+00 -3.80964966e+01
-4.81234044e+00 2.79237956e+00 5.74588694e-01 2.79237956e+00 -4.41714185e+00 8.77507582e-01 5.74588694e-01 8.77507582e-01 -3.93589535e+01
-8.78818393e+00 1.12946832e+00 2.24269973e-02 1.12946832e+00 -2.97211355e+00 9.33543712e-01 2.24269973e-02 9.33543712e-01 -4.21652317e+01
-7.90737754e+00 2.08116549e+00 1.06405279e+00 2.08116549e+00 -2.61256747e+00 1.41865993e+00 1.06405279e+00 1.41865993e+00 -4.05356126e+01