<VTKFile type="UnstructuredGrid" version="0.1" byte_order="LittleEndian">
<UnstructuredGrid>
<Piece NumberOfPoints="173" NumberOfCells="80">
<Points>
<DataArray type="Float64" NumberOfComponents="3" format="ascii">
 0.00000000e+00  0.00000000e+00  0.00000000e+00
 1.00469232e+00  0.00000000e+00  0.00000000e+00
 1.00545120e+00  1.01382470e+00  0.00000000e+00
 0.00000000e+00  1.01294827e+00  0.00000000e+00
 0.00000000e+00  0.00000000e+00  9.84690726e-01
 1.00499558e+00  0.00000000e+00  9.83835518e-01
 1.00504220e+00  1.01242471e+00  9.84780312e-01
 0.00000000e+00  1.01223242e+00  9.86059248e-01
 2.01084590e+00  0.00000000e+00  0.00000000e+00
 2.01131725e+00  1.01596773e+00  0.00000000e+00
 2.01099753e+00  0.00000000e+00  9.80809093e-01
 2.01142883e+00  1.01346707e+00  9.82868910e-01
 3.01809096e+00  0.00000000e+00  0.00000000e+00
 3.01837087e+00  1.01870322e+00  0.00000000e+00
 3.01943994e+00  0.00000000e+00  9.77785945e-01
 3.01872683e+00  1.01487494e+00  9.80146408e-01
 4.02826071e+00  0.00000000e+00  0.00000000e+00
 4.02607059e+00  1.02073014e+00  0.00000000e+00
 4.02975655e+00  0.00000000e+00  9.75494862e-01
 4.02760506e+00  1.01542997e+00  9.76790488e-01
 5.04147434e+00  0.00000000e+00  0.00000000e+00
 5.03692627e+00  1.02276921e+00  0.00000000e+00
 5.04200983e+00  0.00000000e+00  9.70978320e-01
 5.03921795e+00  1.01628101e+00  9.73689139e-01
 6.05718994e+00  0.00000000e+00  0.00000000e+00
 6.04718637e+00  1.03068376e+00  0.00000000e+00
 6.05403328e+00  0.00000000e+00  9.68500555e-01
 6.05229378e+00  1.02116382e+00  9.69227076e-01
 1.00649929e+00  2.02328157e+00  0.00000000e+00
 0.00000000e+00  2.02247024e+00  0.00000000e+00
 1.00561297e+00  2.02248526e+00  9.88381386e-01
 0.00000000e+00  2.02181506e+00  9.88457501e-01
 2.01276708e+00  2.02587533e+00  0.00000000e+00
 2.01157284e+00  2.02437663e+00  9.88868296e-01
 3.01780772e+00  2.02882791e+00  0.00000000e+00
 3.01700020e+00  2.02637219e+00  9.91041243e-01
 4.02231359e+00  2.03294516e+00  0.00000000e+00
 4.02349663e+00  2.02797103e+00  9.89715993e-01
 5.02601910e+00  2.03520918e+00  0.00000000e+00
 5.02884579e+00  2.03009033e+00  9.90472734e-01
 6.03099823e+00  2.04269719e+00  0.00000000e+00
 6.03686094e+00  2.03771973e+00  9.90026891e-01
 1.00702024e+00  3.02813125e+00  0.00000000e+00
 0.00000000e+00  3.02754760e+00  0.00000000e+00
 1.00598300e+00  3.02811909e+00  9.91932333e-01
 0.00000000e+00  3.02784562e+00  9.90908504e-01
 2.01279140e+00  3.02918553e+00  0.00000000e+00
 2.01165128e+00  3.02910709e+00  9.94473398e-01
 3.01625609e+00  3.03128815e+00  0.00000000e+00
 3.01505685e+00  3.03052354e+00  9.98186350e-01
 4.01686668e+00  3.03381157e+00  0.00000000e+00
 4.01613188e+00  3.03174925e+00  1.00060117e+00
 5.02028370e+00  3.03451848e+00  0.00000000e+00
 5.01972866e+00  3.03261232e+00  1.00150752e+00
 6.02053165e+00  3.04217196e+00  0.00000000e+00
 6.02092171e+00  3.04116631e+00  1.00102830e+00
 1.00684988e+00  4.03020763e+00  0.00000000e+00
 0.00000000e+00  4.03046989e+00  0.00000000e+00
 1.00586605e+00  4.03077173e+00  9.93220687e-01
 0.00000000e+00  4.03094864e+00  9.92300987e-01
 2.01195097e+00  4.03053093e+00  0.00000000e+00
 2.01066089e+00  4.03018332e+00  9.95820105e-01
 3.01401997e+00  4.03142405e+00  0.00000000e+00
 3.01286864e+00  4.03101015e+00  9.99040306e-01
 4.01374435e+00  4.03344870e+00  0.00000000e+00
 4.01362324e+00  4.03341579e+00  9.99951422e-01
 6.01426601e+00  4.03805733e+00  0.00000000e+00
 5.01409101e+00  4.03532600e+00  0.00000000e+00
 6.01431608e+00  4.03824091e+00  1.00000441e+00
 5.01410723e+00  4.03546476e+00  1.00012290e+00
 1.00633836e+00  5.03263474e+00  0.00000000e+00
 0.00000000e+00  5.03342009e+00  0.00000000e+00
 1.00547338e+00  5.03308439e+00  9.92910147e-01
 0.00000000e+00  5.03356838e+00  9.91227567e-01
 2.01080489e+00  5.03141689e+00  0.00000000e+00
 2.00919080e+00  5.03170919e+00  9.95903671e-01
 3.01192236e+00  5.03190804e+00  0.00000000e+00
 3.01135039e+00  5.03180313e+00  9.99358118e-01
 4.01200056e+00  5.03341293e+00  0.00000000e+00
 4.01182842e+00  5.03339863e+00  1.00008392e+00
 5.01186657e+00  5.03547955e+00  0.00000000e+00
 5.01191187e+00  5.03549576e+00  9.99999821e-01
 6.01186037e+00  5.03775930e+00  0.00000000e+00
 6.01189756e+00  5.03771067e+00  9.99949694e-01
 1.00712383e+00  6.03631973e+00  0.00000000e+00
 0.00000000e+00  6.03728819e+00  0.00000000e+00
 1.00567603e+00  6.03630304e+00  9.91805315e-01
 0.00000000e+00  6.03755808e+00  9.89903271e-01
 2.01115131e+00  6.03348827e+00  0.00000000e+00
 2.00914383e+00  6.03482771e+00  9.94652927e-01
 3.01104379e+00  6.03222752e+00  0.00000000e+00
 3.01071358e+00  6.03307772e+00  9.98796821e-01
 4.01030350e+00  6.03349924e+00  0.00000000e+00
 4.01011276e+00  6.03349590e+00  1.00009489e+00
 5.00986958e+00  6.03550386e+00  0.00000000e+00
 5.00986719e+00  6.03551817e+00  1.00003612e+00
 6.00979090e+00  6.03766251e+00  0.00000000e+00
 6.00980902e+00  6.03763103e+00  1.00002217e+00
 0.00000000e+00  0.00000000e+00  1.97073138e+00
 1.00605214e+00  0.00000000e+00  1.96889508e+00
 1.00550580e+00  1.00992572e+00  1.97113919e+00
 0.00000000e+00  1.01038408e+00  1.97202373e+00
 2.01371837e+00  0.00000000e+00  1.96626663e+00
 2.01178360e+00  1.00816309e+00  1.96612883e+00
 3.02188802e+00  0.00000000e+00  1.96109891e+00
 3.02201438e+00  1.00759685e+00  1.96144438e+00
 4.03340578e+00  0.00000000e+00  1.95390248e+00
 4.03238630e+00  1.00826728e+00  1.95968568e+00
 5.04451513e+00  0.00000000e+00  1.94841874e+00
 5.04385090e+00  1.00865483e+00  1.95457458e+00
 6.05318356e+00  0.00000000e+00  1.94482613e+00
 6.05585814e+00  1.00844288e+00  1.95029306e+00
 1.00375032e+00  2.01965809e+00  1.97578108e+00
 0.00000000e+00  2.02043962e+00  1.97810638e+00
 2.01023197e+00  2.01918721e+00  1.97473550e+00
 3.01934505e+00  2.02094102e+00  1.97355449e+00
 4.03063822e+00  2.02335501e+00  1.96664810e+00
 5.04362297e+00  2.02396345e+00  1.96616399e+00
 6.05752420e+00  2.02372360e+00  1.96070194e+00
 1.00316048e+00  3.02791977e+00  1.98227811e+00
 0.00000000e+00  3.02773809e+00  1.98411655e+00
 2.00800133e+00  3.02817249e+00  1.98756671e+00
 3.00710320e+00  3.02820826e+00  2.00144887e+00
 1.00383258e+00  4.03243494e+00  1.98721921e+00
 0.00000000e+00  4.03214979e+00  1.98567164e+00
 2.00756550e+00  4.03122997e+00  1.99213517e+00
 3.00918913e+00  4.02853584e+00  1.99703145e+00
 1.00346172e+00  5.03440428e+00  1.98667693e+00
 0.00000000e+00  5.03506231e+00  1.98513508e+00
 2.00689912e+00  5.03321791e+00  1.99121106e+00
 3.01193476e+00  5.03151560e+00  1.99330711e+00
 1.00217259e+00  6.03864956e+00  1.98309672e+00
 0.00000000e+00  6.03733921e+00  1.98389518e+00
 2.00627375e+00  6.03989840e+00  1.98616624e+00
 3.01308608e+00  6.03891420e+00  1.98727405e+00
 5.01196957e+00  5.03548527e+00  2.00001264e+00
 6.01197815e+00  5.03758287e+00  1.99995351e+00
 6.00985527e+00  6.03760147e+00  2.00001287e+00
 5.00983953e+00  6.03548717e+00  2.00004530e+00
 0.00000000e+00  0.00000000e+00  2.95578432e+00
 1.00825942e+00  0.00000000e+00  2.95475340e+00
 1.00817358e+00  1.00857627e+00  2.95749760e+00
 0.00000000e+00  1.00852191e+00  2.95901203e+00
 2.01813531e+00  0.00000000e+00  2.95037150e+00
 2.01582956e+00  1.00642169e+00  2.95451689e+00
 3.02714396e+00  0.00000000e+00  2.94625688e+00
 3.02724433e+00  1.00466835e+00  2.94776654e+00
 4.03802967e+00  0.00000000e+00  2.94216800e+00
 4.03814888e+00  1.00506055e+00  2.94044423e+00
 5.04752254e+00  0.00000000e+00  2.93644571e+00
 5.04836512e+00  1.00577855e+00  2.93747377e+00
 6.05511189e+00  0.00000000e+00  2.93393040e+00
 6.05666399e+00  1.00460947e+00  2.93534327e+00
 1.00495970e+00  2.01576090e+00  2.96426678e+00
 0.00000000e+00  2.01867890e+00  2.96528363e+00
 2.01406193e+00  2.01500535e+00  2.95495582e+00
 3.02445793e+00  2.01714015e+00  2.94345427e+00
 4.03899431e+00  2.01950765e+00  2.94260955e+00
 5.05060816e+00  2.01634932e+00  2.94035602e+00
 6.05989790e+00  2.01342320e+00  2.93925714e+00
 1.00282133e+00  3.02722192e+00  2.97601533e+00
 0.00000000e+00  3.02694392e+00  2.97261620e+00
 2.01253319e+00  3.02483296e+00  2.96560216e+00
 1.00235891e+00  4.03302622e+00  2.98117089e+00
 0.00000000e+00  4.03441000e+00  2.98002386e+00
 2.00659108e+00  4.03297329e+00  2.98860574e+00
 1.00278401e+00  5.03817987e+00  2.98048496e+00
 0.00000000e+00  5.03662539e+00  2.98137283e+00
 2.00709510e+00  5.03896523e+00  2.98067069e+00
 3.00646853e+00  4.03501511e+00  3.00246549e+00
 3.01472235e+00  5.03546953e+00  2.98025441e+00
 1.00237894e+00  6.04136467e+00  2.97854137e+00
 0.00000000e+00  6.04161406e+00  2.97556686e+00
</DataArray>
</Points>
<PointData Tensors="Stress_Components,Plastic_strain_components" Vevtors="Spatial_displacement,Reaction_force" Scalars="Equivalent_plastic_strain,Stress_Mises,Stress_Max_Principal,Stress_Mid_Principal,Stress_Min_Principal,Stress_Pressure,Stress_Tresca,Stress_Third_Invariant,Plastic_strain_Max_Principal,Plastic_strain_Min_Principal">
<DataArray type="Float32" Name="Stress_Components" NumberOfComponents="9" format="ascii">
-4.13860321e+00 4.34322283e-05 -1.47265336e-03 4.34322283e-05 4.08874655e+00 -2.81441584e-03 -1.47265336e-03 -2.81441584e-03 -2.88648853e+01
-4.86805004e+00 3.66524935e-01 -1.09554362e-03 3.66524935e-01 3.33142400e+00 8.65621641e-02 -1.09554362e-03 8.65621641e-02 -3.05109854e+01
-3.67119677e+00 1.22046010e+00 -7.21948937e-01 1.22046010e+00 2.45322618e+00 -2.45972440e-01 -7.21948937e-01 -2.45972440e-01 -3.05050697e+01
-2.11134616e+00 4.53608900e-01 -3.86406839e-01 4.53608900e-01 3.86897457e+00 1.72466226e-03 -3.86406839e-01 1.72466226e-03 -2.74068089e+01
-3.45456815e+00 9.77481715e-04 7.29519635e-01 9.77481715e-04 4.14642012e+00 -4.09717828e-01 7.29519635e-01 -4.09717828e-01 -2.81901131e+01
-3.88803422e+00 5.85815161e-02 4.58068892e-01 5.85815161e-02 3.28840470e+00 -5.59240198e-01 4.58068892e-01 -5.59240198e-01 -2.97366982e+01
-2.60476681e+00 5.55493718e-01 1.16497617e-01 5.55493718e-01 3.22474271e+00 -8.91334448e-01 1.16497617e-01 -8.91334448e-01 -2.86267898e+01
-2.77745858e+00 1.31475464e-01 2.93532625e-01 1.31475464e-01 3.45147741e+00 -6.86482370e-01 2.93532625e-01 -6.86482370e-01 -2.85264854e+01
-8.18237722e+00 1.57293610e-01 -9.90410848e-03 1.57293610e-01 5.31410813e-01 -9.93612334e-02 -9.90410848e-03 -9.93612334e-02 -3.71711769e+01
-5.57296839e+00 1.81079510e+00 -1.09376627e+00 1.81079510e+00 7.90952578e-01 5.61167598e-02 -1.09376627e+00 5.61167598e-02 -3.42457204e+01
-3.43222150e+00 2.66161542e-01 7.34133348e-01 2.66161542e-01 2.51862767e+00 -6.84038803e-01 7.34133348e-01 -6.84038803e-01 -3.03774018e+01
-5.06441526e+00 8.76648694e-01 -1.02180546e-01 8.76648694e-01 5.69173984e-01 -1.25149701e+00 -1.02180546e-01 -1.25149701e+00 -3.42349752e+01
-1.11138704e+01 3.90359148e-01 -2.54231803e-02 3.90359148e-01 -2.17610028e+00 6.91078007e-01 -2.54231803e-02 6.91078007e-01 -4.32998848e+01
-7.49804572e+00 1.27445069e+00 -1.73639208e+00 1.27445069e+00 -8.85053381e-01 -1.82343852e-01 -1.73639208e+00 -1.82343852e-01 -3.83215752e+01
-4.50997761e+00 -4.39106151e-01 6.82063572e-01 -4.39106151e-01 3.04924369e-01 -5.38630180e-01 6.82063572e-01 -5.38630180e-01 -3.42991562e+01
-5.98108826e+00 -1.38412694e-01 5.56882061e-01 -1.38412694e-01 -8.30445252e-01 -6.46797034e-01 5.56882061e-01 -6.46797034e-01 -3.66797358e+01
-9.72283602e+00 -9.41198647e-01 -1.31987613e-02 -9.41198647e-01 -2.39712006e+00 5.03501624e-01 -1.31987613e-02 5.03501624e-01 -4.23963814e+01
-1.09831584e+01 -6.54749767e-01 -2.65931097e+00 -6.54749767e-01 -3.79936063e+00 5.61980583e-01 -2.65931097e+00 5.61980583e-01 -4.51604495e+01
-5.72904515e+00 -1.06285359e+00 5.94093934e-01 -1.06285359e+00 -2.06776142e+00 -3.37381616e-01 5.94093934e-01 -3.37381616e-01 -3.83168163e+01
-2.79560040e+00 -1.24111456e+00 6.85003474e-01 -1.24111456e+00 3.71793300e-01 1.13937192e-01 6.85003474e-01 1.13937192e-01 -3.21261532e+01
-9.95085472e+00 -1.43457329e+00 -2.23763026e-02 -1.43457329e+00 -3.43942666e+00 3.03842947e-01 -2.23763026e-02 3.03842947e-01 -4.39363279e+01
-9.93085897e+00 -2.51325031e+00 -2.81852376e+00 -2.51325031e+00 -3.67235523e+00 1.05377446e+00 -2.81852376e+00 1.05377446e+00 -4.35051373e+01
-3.57467484e+00 -1.01072427e+00 1.16668774e+00 -1.01072427e+00 -4.12392735e-01 -3.31507325e-01 1.16668774e+00 -3.31507325e-01 -3.41411758e+01
-3.13203438e+00 -2.01999247e+00 1.55841515e+00 -2.01999247e+00 -1.00772951e+00 1.14878294e-01 1.55841515e+00 1.14878294e-01 -3.38457788e+01
-2.31968517e+01 -3.91225171e+00 -1.26870684e-02 -3.91225171e+00 -1.08058872e+01 -7.27621198e-01 -1.26870684e-02 -7.27621198e-01 -6.48221970e+01
-2.34635315e+01 -3.22329623e+00 -4.09990406e+00 -3.22329623e+00 -1.17877023e+01 3.05170858e+00 -4.09990406e+00 3.05170858e+00 -6.53947716e+01
-1.02616804e+01 -8.05504620e-01 3.91475782e-01 -8.05504620e-01 -2.73293877e+00 -8.92291635e-01 3.91475782e-01 -8.92291635e-01 -4.35639544e+01
-1.08447016e+01 -2.02390987e+00 5.90331316e-01 -2.02390987e+00 -5.77444440e+00 6.07520290e-01 5.90331316e-01 6.07520290e-01 -4.66790619e+01
1.09427589e+00 1.79273793e+00 -4.73709822e-01 1.79273793e+00 1.13444650e+00 -6.11600049e-01 -4.73709822e-01 -6.11600049e-01 -2.72196000e+01
9.03918609e-01 4.60165799e-01 -5.49689263e-01 4.60165799e-01 1.12817657e+00 -9.63348430e-04 -5.49689263e-01 -9.63348430e-04 -2.76578465e+01
-4.69385091e-01 1.20416312e+00 1.02139235e+00 1.20416312e+00 1.58335533e+00 -1.01201912e+00 1.02139235e+00 -1.01201912e+00 -2.84261590e+01
1.34895697e+00 5.09126343e-01 9.98723507e-01 5.09126343e-01 3.59953669e+00 -2.07974244e-01 9.98723507e-01 -2.07974244e-01 -2.44956477e+01
2.77097368e+00 2.50987002e+00 -1.28014126e+00 2.50987002e+00 2.33722556e+00 -9.75329742e-01 -1.28014126e+00 -9.75329742e-01 -2.36537435e+01
4.06814545e-01 1.47872435e+00 1.67644196e+00 1.47872435e+00 2.09097043e+00 -2.09642995e-01 1.67644196e+00 -2.09642995e-01 -2.67910049e+01
9.16628578e+00 1.44750053e+00 -1.76452751e+00 1.44750053e+00 8.67024425e+00 -6.59604177e-01 -1.76452751e+00 -6.59604177e-01 -1.04605377e+01
1.68244922e+00 2.75640995e-01 3.42099331e+00 2.75640995e-01 3.39634837e+00 5.90614747e-01 3.42099331e+00 5.90614747e-01 -2.39978261e+01
9.32664207e+00 -1.53174177e+00 -3.30565530e+00 -1.53174177e+00 9.12883356e+00 5.24971889e-01 -3.30565530e+00 5.24971889e-01 -9.24412012e+00
-3.65552862e-01 -2.84614429e+00 4.42097058e+00 -2.84614429e+00 2.10621923e+00 1.44358230e+00 4.42097058e+00 1.44358230e+00 -2.66034132e+01
1.42814499e+01 -1.01327355e+00 -3.40065522e+00 -1.01327355e+00 9.46554101e+00 2.04402727e+00 -3.40065522e+00 2.04402727e+00 -1.77539206e+00
4.06766266e-01 -3.46934455e+00 4.93694505e+00 -3.46934455e+00 4.72826838e-01 4.07202196e+00 4.93694505e+00 4.07202196e+00 -2.59327558e+01
1.16019819e+01 -2.26289604e+00 -4.08354735e+00 -2.26289604e+00 4.71231365e+00 3.78118980e+00 -4.08354735e+00 3.78118980e+00 -9.37226868e+00
-1.03224783e+01 -6.36636106e+00 5.31012177e+00 -6.36636106e+00 -8.71954664e+00 6.58369426e+00 5.31012177e+00 6.58369426e+00 -4.57444778e+01
5.39619339e+00 1.01267470e+00 4.78616599e-02 1.01267470e+00 -9.38766181e-01 -9.94423330e-01 4.78616599e-02 -9.94423330e-01 -2.42254381e+01
3.51461935e+00 5.98264217e-01 3.47412989e-01 5.98264217e-01 -2.68390149e+00 -9.30464547e-03 3.47412989e-01 -9.30464547e-03 -2.84207468e+01
3.39024443e+00 7.72434209e-01 1.82874896e+00 7.72434209e-01 -8.06227520e-01 -3.10762905e-01 1.82874896e+00 -3.10762905e-01 -2.65826795e+01
4.85474002e+00 2.91597527e-01 1.71351561e+00 2.91597527e-01 1.72431096e+00 5.61423205e-01 1.71351561e+00 5.61423205e-01 -2.25217834e+01
8.87091756e+00 1.66390271e+00 8.31656866e-02 1.66390271e+00 3.05417943e+00 -1.54075220e+00 8.31656866e-02 -1.54075220e+00 -1.62358214e+01
8.74198711e+00 8.39020368e-01 2.71292845e+00 8.39020368e-01 3.87607682e+00 1.13562677e+00 2.71292845e+00 1.13562677e+00 -1.57444053e+01
1.62504702e+01 1.07757905e+00 -1.54560620e+00 1.07757905e+00 1.25865887e+01 -1.94788508e+00 -1.54560620e+00 -1.94788508e+00 8.95750165e-01
1.83479224e+01 -8.50563630e-01 9.26945736e-01 -8.50563630e-01 1.36532321e+01 1.76534096e-01 9.26945736e-01 1.76534096e-01 7.80176465e+00
2.03672692e+01 -2.90030201e+00 -4.92647874e+00 -2.90030201e+00 1.81830014e+01 -1.59617585e+00 -4.92647874e+00 -1.59617585e+00 1.97191394e+01
3.72644456e+00 -6.36098305e+00 3.36226559e+00 -6.36098305e+00 9.23587402e+00 2.91074321e+00 3.36226559e+00 2.91074321e+00 1.29756570e+00
2.05141188e+01 3.19864170e+00 -6.41551514e+00 3.19864170e+00 1.61628326e+01 -1.08353736e+00 -6.41551514e+00 -1.08353736e+00 2.30761490e+01
1.17492490e+00 3.96586299e-01 3.95872307e+00 3.96586299e-01 6.73043760e+00 -1.64435486e+00 3.95872307e+00 -1.64435486e+00 1.66243752e+00
1.37101493e+01 -3.11457241e+00 -1.12914148e+00 -3.11457241e+00 -1.56185913e+00 1.76058358e+00 -1.12914148e+00 1.76058358e+00 1.29454939e+01
-9.64272499e-01 -2.77172518e+00 5.47871208e+00 -2.77172518e+00 -1.16212370e+01 -5.19784376e-01 5.47871208e+00 -5.19784376e-01 -2.39823961e+00
5.83092290e+00 -3.78276873e-01 6.57983467e-01 -3.78276873e-01 -3.25154275e+00 -1.20769295e+00 6.57983467e-01 -1.20769295e+00 -2.56670957e+01
4.53034902e+00 -4.49366301e-01 5.79934835e-01 -4.49366301e-01 -4.17509818e+00 -4.74392809e-03 5.79934835e-01 -4.74392809e-03 -2.82993078e+01
5.74694327e+00 -8.78415875e-01 2.05257816e+00 -8.78415875e-01 -1.48666170e+00 1.82054859e-01 2.05257816e+00 1.82054859e-01 -2.40413926e+01
4.76615959e+00 -4.31616358e-01 8.62234537e-01 -4.31616358e-01 -2.26102047e+00 8.24171826e-01 8.62234537e-01 8.24171826e-01 -2.62748346e+01
8.41724885e+00 -4.04734902e-01 -6.55071154e-01 -4.04734902e-01 2.30143011e-01 -2.25944620e+00 -6.55071154e-01 -2.25944620e+00 -1.92058001e+01
8.70132697e+00 -1.62104642e+00 1.64418072e+00 -1.62104642e+00 1.31873803e+00 1.38033555e+00 1.64418072e+00 1.38033555e+00 -1.73679875e+01
1.08017825e+01 -2.21455428e+00 -1.99083456e+00 -2.21455428e+00 8.19343850e+00 -5.24364197e+00 -1.99083456e+00 -5.24364197e+00 -4.92945611e+00
1.28379707e+01 -8.33871024e-01 -8.99666340e-01 -8.33871024e-01 6.10244737e+00 1.44654766e+00 -8.99666340e-01 1.44654766e+00 -8.06289332e+00
1.20690401e+01 5.78248262e-01 -2.04519246e+00 5.78248262e-01 1.00194299e+01 -3.02791758e+00 -2.04519246e+00 -3.02791758e+00 5.39683454e+00
1.49184125e+01 4.12064843e+00 -2.21705178e-01 4.12064843e+00 6.29644072e+00 5.13078574e+00 -2.21705178e-01 5.13078574e+00 -4.77684309e-01
5.53424394e+00 -1.68606496e+00 1.85343005e+00 -1.68606496e+00 -1.60817699e+01 4.78734389e-01 1.85343005e+00 4.78734389e-01 1.80341893e+00
5.52308670e+00 -4.85628955e+00 2.33012414e+00 -4.85628955e+00 4.58442676e+00 3.13586414e-01 2.33012414e+00 3.13586414e-01 1.06342117e+00
9.06090879e+00 -2.87221503e+00 4.91931438e-02 -2.87221503e+00 -1.61702003e+01 -7.40851091e-01 4.91931438e-02 -7.40851091e-01 4.43909240e+00
6.49866668e+00 -1.08000143e+00 -1.59437872e+00 -1.08000143e+00 4.09758412e+00 5.63074748e-01 -1.59437872e+00 5.63074748e-01 -1.28234744e-01
3.45185515e+00 -1.45113346e+00 7.34035581e-01 -1.45113346e+00 -2.49277523e+00 -9.67240214e-01 7.34035581e-01 -9.67240214e-01 -2.81623626e+01
2.61375791e+00 -1.01350096e+00 1.28656566e-01 -1.01350096e+00 -4.11833405e+00 -4.26922948e-03 1.28656566e-01 -4.26922948e-03 -3.08544550e+01
3.99297968e+00 -1.48475192e+00 2.01790377e-01 -1.48475192e+00 -8.95742532e-01 1.20530986e+00 2.01790377e-01 1.20530986e+00 -2.58807988e+01
3.01642513e+00 -5.48571348e-01 -3.59998293e-01 -5.48571348e-01 -2.59592981e+00 1.77161944e+00 -3.59998293e-01 1.77161944e+00 -2.86998925e+01
4.15068924e+00 -9.51712906e-01 8.34620327e-01 -9.51712906e-01 4.71076261e-01 -3.52029616e+00 8.34620327e-01 -3.52029616e+00 -2.34548364e+01
4.30747879e+00 -2.79229636e+00 2.49774352e-01 -2.79229636e+00 2.39116889e+00 2.19426893e+00 2.49774352e-01 2.19426893e+00 -2.17575954e+01
7.50637519e+00 -8.71896327e-01 -8.42554502e-01 -8.71896327e-01 8.05806661e+00 -4.04711947e+00 -8.42554502e-01 -4.04711947e+00 -1.33664650e+01
3.18079817e+00 9.02278721e-02 -8.49308282e-01 9.02278721e-02 2.80044747e+00 5.96216982e+00 -8.49308282e-01 5.96216982e+00 -1.89668341e+01
-2.02250957e-01 9.93368149e-01 -3.48062627e-01 9.93368149e-01 2.44097292e+00 -4.50620991e+00 -3.48062627e-01 -4.50620991e+00 2.68534717e+00
7.76680118e+00 2.50955921e+00 7.54059054e-01 2.50955921e+00 1.37966122e+00 4.07116127e+00 7.54059054e-01 4.07116127e+00 -3.03090149e+00
-2.48853990e+00 1.29951203e+00 3.43960464e-01 1.29951203e+00 4.12604059e+00 9.49636653e-01 3.43960464e-01 9.49636653e-01 3.16608250e-01
7.47414672e-01 1.29507006e+00 -3.49468601e-01 1.29507006e+00 8.34971464e-01 -3.26386860e-01 -3.49468601e-01 -3.26386860e-01 -2.39289469e-01
1.77084580e+00 8.93043995e-01 -1.02047241e+00 8.93043995e-01 -6.19665110e+00 7.73479730e-01 -1.02047241e+00 7.73479730e-01 -1.79039657e-01
2.13239659e+00 3.44349305e-01 -9.42791541e-01 3.44349305e-01 -6.83777110e+00 3.05316945e-02 -9.42791541e-01 3.05316945e-02 1.28954738e+00
2.53410816e-01 -1.66572475e+00 -1.19399007e-01 -1.66572475e+00 -4.43409050e+00 -1.44627517e+00 -1.19399007e-01 -1.44627517e+00 -3.38524055e+01
1.35580242e-01 -8.78789186e-01 4.91244704e-01 -8.78789186e-01 -7.12637615e+00 -8.08825344e-03 4.91244704e-01 -8.08825344e-03 -3.67844200e+01
2.08990373e-01 -1.22884697e+00 1.60863519e-01 -1.22884697e+00 -3.55476797e+00 -4.26486731e-01 1.60863519e-01 -4.26486731e-01 -3.31929188e+01
9.81979504e-01 -1.58744627e+00 -1.05043870e+00 -1.58744627e+00 -3.24971974e+00 1.68431026e+00 -1.05043870e+00 1.68431026e+00 -3.20291414e+01
-3.03703165e+00 -2.68270016e+00 3.12485826e+00 -2.68270016e+00 -9.31525022e-01 -4.60130405e+00 3.12485826e+00 -4.60130405e+00 -3.21734543e+01
-3.22795480e+00 -3.02420670e+00 2.35558903e+00 -3.02420670e+00 -7.23713152e-01 1.76839874e+00 2.35558903e+00 1.76839874e+00 -3.37334929e+01
-2.95367861e+00 -3.22052550e+00 7.38107300e+00 -3.22052550e+00 8.41225171e+00 -1.19302973e+00 7.38107300e+00 -1.19302973e+00 -1.90604644e+01
-8.19755185e+00 -4.45613194e+00 3.60435863e+00 -4.45613194e+00 -1.53771607e+00 9.80617317e+00 3.60435863e+00 9.80617317e+00 -3.16405824e+01
-2.26652737e+01 -1.71198726e+00 8.52227487e-01 -1.71198726e+00 9.38409090e+00 -2.86833638e+00 8.52227487e-01 -2.86833638e+00 4.97671318e+00
-1.38858008e+01 -4.29838347e+00 3.29992659e-01 -4.29838347e+00 8.94781888e-01 4.00449157e+00 3.29992659e-01 4.00449157e+00 3.50055575e-01
-9.77615833e+00 1.75621668e+00 3.00767139e-01 1.75621668e+00 1.92667395e+00 -5.06351069e-02 3.00767139e-01 -5.06351069e-02 2.32358788e+00
-5.35612059e+00 7.82639633e-01 7.40061611e-01 7.82639633e-01 6.08422836e-01 -8.28305523e-01 7.40061611e-01 -8.28305523e-01 7.17833966e-01
-2.94021225e+00 1.85794687e+00 -6.55510962e-01 1.85794687e+00 -3.68267441e+00 3.79985899e-01 -6.55510962e-01 3.79985899e-01 1.18005967e+00
-1.65388322e+00 5.08273154e-01 8.74603361e-01 5.08273154e-01 -2.53345984e+00 3.77563402e-01 8.74603361e-01 3.77563402e-01 9.47033435e-01
-2.14370939e+00 -1.62691227e-03 2.41296820e-01 -1.62691227e-03 2.62931854e+00 -1.20113450e+00 2.41296820e-01 -1.20113450e+00 -2.90674992e+01
-1.57249614e+00 -2.49177232e-01 1.14014086e+00 -2.49177232e-01 1.85652301e+00 -5.12084860e-01 1.14014086e+00 -5.12084860e-01 -2.94528975e+01
-1.03971142e+00 -1.16874130e+00 8.32876550e-01 -1.16874130e+00 3.40953575e+00 -4.96852299e-01 8.32876550e-01 -4.96852299e-01 -2.68585653e+01
-2.61839989e+00 -1.87384114e-01 9.67254832e-01 -1.87384114e-01 3.06868241e+00 -3.24519455e-01 9.67254832e-01 -3.24519455e-01 -2.87838516e+01
1.60812491e+00 -1.11832875e+00 1.80641133e-01 -1.11832875e+00 1.94522923e+00 7.62200914e-03 1.80641133e-01 7.62200914e-03 -2.62523041e+01
5.21961664e-01 -1.53716620e+00 1.40864633e-01 -1.53716620e+00 2.12297439e+00 -1.56785396e+00 1.40864633e-01 -1.56785396e+00 -2.64556296e+01
3.28842086e+00 8.89090840e-02 1.09591611e-01 8.89090840e-02 1.15288755e+00 -9.48141493e-01 1.09591611e-01 -9.48141493e-01 -2.51982319e+01
5.34659028e-01 -7.68365651e-01 8.93771797e-02 -7.68365651e-01 3.88774678e-01 1.73539962e-01 8.93771797e-02 1.73539962e-01 -2.85413299e+01
2.14838415e+00 -5.53670265e-01 2.27042636e+00 -5.53670265e-01 -1.35957988e+00 -1.03526967e+00 2.27042636e+00 -1.03526967e+00 -2.87831335e+01
5.56136928e-02 -4.65937493e-01 4.89501692e-01 -4.65937493e-01 4.65717316e-01 9.78151675e-01 4.89501692e-01 9.78151675e-01 -2.93045278e+01
2.99552542e+00 -4.79640722e-01 2.39954814e+00 -4.79640722e-01 1.59018183e+00 -6.10377744e-01 2.39954814e+00 -6.10377744e-01 -2.46650343e+01
1.68291865e+00 -1.53552298e-01 1.50165531e+00 -1.53552298e-01 1.22056502e+00 1.15469043e-01 1.50165531e+00 1.15469043e-01 -2.66863737e+01
4.68354630e+00 1.28805685e+00 2.04415947e+00 1.28805685e+00 4.66405129e+00 -7.53871277e-01 2.04415947e+00 -7.53871277e-01 -1.97403355e+01
5.17115241e+00 6.66337732e-01 1.35712542e-01 6.66337732e-01 4.29338419e+00 -7.67217845e-01 1.35712542e-01 -7.67217845e-01 -1.96532934e+01
-2.51371473e-01 -1.25549120e+00 1.26673956e+00 -1.25549120e+00 4.40371856e+00 -1.51617693e+00 1.26673956e+00 -1.51617693e+00 -2.48206341e+01
-1.71085826e+00 -7.29830891e-01 2.92121595e+00 -7.29830891e-01 4.49473572e+00 -1.32656112e+00 2.92121595e+00 -1.32656112e+00 -2.55310330e+01
-9.16882937e+00 -9.40895629e-01 3.69711142e+00 -9.40895629e-01 -5.44432204e+00 -2.91838288e-01 3.69711142e+00 -2.91838288e-01 -4.52970025e+01
-2.00447515e+01 -2.47862996e+00 8.12950616e+00 -2.47862996e+00 -1.76619422e+01 5.33480375e-01 8.12950616e+00 5.33480375e-01 -6.71404182e+01
-1.35302267e+01 -1.45166479e-01 1.75618061e+00 -1.45166479e-01 -9.87749910e+00 2.42886730e+00 1.75618061e+00 2.42886730e+00 -5.48421631e+01
-1.68236127e+01 7.60937855e-03 3.35916835e+00 7.60937855e-03 -1.37701085e+01 4.65774983e+00 3.35916835e+00 4.65774983e+00 -6.16388454e+01
-1.71883302e+01 -7.35042421e-02 2.15891078e-01 -7.35042421e-02 -1.33810086e+01 4.06018707e+00 2.15891078e-01 4.06018707e+00 -6.19390087e+01
3.33650457e+00 1.41975041e-01 3.89762072e+00 1.41975041e-01 6.64489716e+00 -6.19321309e-01 3.89762072e+00 -6.19321309e-01 -1.75755989e+01
1.23519564e+00 -2.32023127e-01 2.45182864e+00 -2.32023127e-01 5.34733653e+00 -1.42723766e+00 2.45182864e+00 -1.42723766e+00 -2.20875301e+01
-9.50839113e+00 -8.85580942e-01 6.12474950e+00 -8.85580942e-01 -4.64578613e+00 7.22863647e+00 6.12474950e+00 7.22863647e+00 -4.09447502e+01
-1.83521905e+01 -3.08201671e+00 4.69480944e+00 -3.08201671e+00 -7.23136315e+00 1.08277640e+01 4.69480944e+00 1.08277640e+01 -6.19120026e+00
4.76441720e+00 -1.77177995e-01 3.17898773e+00 -1.77177995e-01 3.02583461e+00 1.59161496e+00 3.17898773e+00 1.59161496e+00 -1.95295194e+01
4.29354614e+00 5.66419870e-01 2.41852161e+00 5.66419870e-01 3.63708684e+00 2.09136128e+00 2.41852161e+00 2.09136128e+00 -2.09494023e+01
9.40414617e+00 -3.65813104e+00 3.28496192e+00 -3.65813104e+00 8.70743438e+00 3.44912970e+00 3.28496192e+00 3.44912970e+00 -7.64375976e+00
1.47133742e+01 -5.70944647e-01 -8.07074134e+00 -5.70944647e-01 1.58231874e+01 2.89228952e+00 -8.07074134e+00 2.89228952e+00 7.77456999e+00
2.65453564e+00 -1.90642948e+00 4.96303856e-01 -1.90642948e+00 1.67217802e+00 1.74933400e+00 4.96303856e-01 1.74933400e+00 -2.40878024e+01
6.27478921e+00 -9.48694512e-01 7.36428641e-01 -9.48694512e-01 3.80449367e+00 1.70656925e+00 7.36428641e-01 1.70656925e+00 -1.89181912e+01
9.35345665e-01 -2.33337331e+00 6.14381968e-01 -2.33337331e+00 3.21166936e-01 2.36349880e+00 6.14381968e-01 2.36349880e+00 -2.66346087e+01
-4.46559548e-01 7.80056849e-01 -3.47364474e+00 7.80056849e-01 -1.62283194e+00 3.63108310e+00 -3.47364474e+00 3.63108310e+00 -3.19528277e+01
2.47294158e-02 3.53633575e-02 -8.34495105e-01 3.53633575e-02 2.98554647e+00 -5.45369044e-01 -8.34495105e-01 -5.45369044e-01 -2.66482015e+01
1.20656776e+00 1.40437734e+00 9.31803823e-01 1.40437734e+00 1.73174620e+00 -6.62581414e-01 9.31803823e-01 -6.62581414e-01 -2.67140388e+01
-2.85865307e+00 2.86918499e-01 1.15080377e+00 2.86918499e-01 5.41122451e-01 -2.42421377e-01 1.15080377e+00 -2.42421377e-01 -3.28064356e+01
-2.30183220e+01 5.90302527e-01 7.88026023e-01 5.90302527e-01 -2.05200438e+01 4.94292295e+00 7.88026023e-01 4.94292295e+00 -7.79502335e+01
1.18961573e-01 -6.69521570e-01 7.68140256e-02 -6.69521570e-01 -1.45613045e-01 -1.28340926e-01 7.68140256e-02 -1.28340926e-01 -3.59740272e-01
-2.29592070e-01 -5.29535562e-01 -3.26275736e-01 -5.29535562e-01 1.95996916e-01 -8.73643756e-02 -3.26275736e-01 -8.73643756e-02 -3.52800019e-01
2.25187590e-01 -1.84421882e-01 3.54916889e-01 -1.84421882e-01 3.70609969e-01 1.93440650e-01 3.54916889e-01 1.93440650e-01 -9.82195586e-01
1.59207715e-01 -3.24498400e-01 -2.44730402e-01 -3.24498400e-01 -3.85429867e-01 -2.73834914e-01 -2.44730402e-01 -2.73834914e-01 -1.60209451e-01
1.51561439e-01 8.14457890e-04 1.89630353e+00 8.14457890e-04 6.67027414e-01 -2.82490969e-01 1.89630353e+00 -2.82490969e-01 -2.89774227e+01
6.04215221e-01 6.02950659e-02 1.26509818e+00 6.02950659e-02 2.38300309e-01 2.86815908e-01 1.26509818e+00 2.86815908e-01 -2.89783511e+01
5.51233944e-01 -1.49236095e+00 1.83697023e+00 -1.49236095e+00 7.16453023e-01 4.89523161e-01 1.83697023e+00 4.89523161e-01 -2.82251129e+01
-6.65144980e-01 1.01727108e-01 1.78597780e+00 1.01727108e-01 7.40801618e-01 -9.84972164e-01 1.78597780e+00 -9.84972164e-01 -2.97611027e+01
2.69358222e+00 -1.45499486e+00 1.81457910e+00 -1.45499486e+00 -5.15280604e-01 1.54832097e-01 1.81457910e+00 1.54832097e-01 -2.72602558e+01
2.24240807e+00 -2.20075282e+00 1.57934807e+00 -2.20075282e+00 2.32176051e-01 8.34047787e-01 1.57934807e+00 8.34047787e-01 -2.66407245e+01
4.71088529e+00 8.68737958e-02 6.55770242e-01 8.68737958e-02 -1.02689446e+00 1.08305394e+00 6.55770242e-01 1.08305394e+00 -2.54010100e+01
3.25087278e+00 -9.57104791e-01 -4.03213549e-01 -9.57104791e-01 -1.15119699e-01 -6.27593406e-01 -4.03213549e-01 -6.27593406e-01 -2.60422559e+01
6.38074745e+00 2.24894665e-01 -8.82067472e-01 2.24894665e-01 4.57685769e-01 -2.24266093e-01 -8.82067472e-01 -2.24266093e-01 -2.19993978e+01
-4.07603756e-01 4.95593449e-01 -1.00691056e+00 4.95593449e-01 -2.65261096e+00 1.13648921e-03 -1.00691056e+00 1.13648921e-03 -3.28239131e+01
7.45001280e+00 4.10570860e-01 7.41126746e-01 4.10570860e-01 3.72756222e+00 -8.83625224e-01 7.41126746e-01 -8.83625224e-01 -1.76235402e+01