<VTKFile type="UnstructuredGrid" version="0.1" byte_order="LittleEndian">
<UnstructuredGrid>
<Piece NumberOfPoints="191" NumberOfCells="79">
<Points>
<DataArray type="Float64" NumberOfComponents="3" format="ascii">
 1.00002134e+00  5.00009871e+00  1.99979889e+00
 2.00003862e+00  5.00009108e+00  1.99982440e+00
 2.00003743e+00  6.00011683e+00  1.99978518e+00
 1.00001919e+00  6.00012159e+00  1.99977839e+00
 1.00001276e+00  5.00011683e+00  2.99969459e+00
 2.00001979e+00  5.00012541e+00  2.99971557e+00
 2.00001049e+00  6.00015306e+00  2.99966311e+00
 1.00000811e+00  6.00013494e+00  2.99967623e+00
 3.00005817e+00  5.00008392e+00  1.99984777e+00
 3.00005579e+00  6.00011063e+00  1.99980175e+00
 3.00002766e+00  5.00013876e+00  2.99975228e+00
 3.00004435e+00  6.00015879e+00  2.99964905e+00
 5.00008774e+00  5.00006628e+00  2.00000072e+00
 6.00008774e+00  5.00006342e+00  1.99999893e+00
 6.00009012e+00  6.00006390e+00  1.99999940e+00
 5.00008965e+00  6.00006628e+00  2.00000095e+00
 5.00008917e+00  5.00006580e+00  3.00000048e+00
 6.00008917e+00  5.00006342e+00  2.99999905e+00
 6.00009155e+00  6.00006342e+00  2.99999928e+00
 5.00009155e+00  6.00006580e+00  3.00000095e+00
 0.00000000e+00  0.00000000e+00  2.99965787e+00
 1.00001895e+00  0.00000000e+00  2.99965668e+00
 1.00001705e+00  1.00002122e+00  2.99966002e+00
 0.00000000e+00  1.00002301e+00  2.99966216e+00
 0.00000000e+00  0.00000000e+00  3.99954367e+00
 1.00002277e+00  0.00000000e+00  3.99954319e+00
 1.00002313e+00  1.00002265e+00  3.99954295e+00
 0.00000000e+00  1.00002217e+00  3.99954605e+00
 2.00004101e+00  0.00000000e+00  2.99965286e+00
 2.00003624e+00  1.00001419e+00  2.99965906e+00
 2.00004554e+00  0.00000000e+00  3.99954200e+00
 2.00004530e+00  1.00002313e+00  3.99953628e+00
 3.00006390e+00  0.00000000e+00  2.99965096e+00
 3.00006318e+00  1.00001025e+00  2.99965310e+00
 3.00006914e+00  0.00000000e+00  3.99953866e+00
 3.00006652e+00  1.00002086e+00  3.99953389e+00
 4.00008965e+00  0.00000000e+00  2.99965167e+00
 4.00008965e+00  1.00001311e+00  2.99964428e+00
 4.00009203e+00  0.00000000e+00  3.99953651e+00
 4.00009060e+00  1.00001812e+00  3.99953127e+00
 5.00011539e+00  0.00000000e+00  2.99964952e+00
 5.00011539e+00  1.00001776e+00  2.99964857e+00
 5.00011587e+00  0.00000000e+00  3.99953771e+00
 5.00011492e+00  1.00001681e+00  3.99952769e+00
 6.00014114e+00  0.00000000e+00  2.99964857e+00
 6.00013924e+00  1.00001931e+00  2.99964857e+00
 6.00013828e+00  0.00000000e+00  3.99953914e+00
 6.00013971e+00  1.00001848e+00  3.99953079e+00
 1.00000811e+00  2.00004077e+00  2.99967194e+00
 0.00000000e+00  2.00004888e+00  2.99967432e+00
 1.00002241e+00  2.00004864e+00  3.99955916e+00
 0.00000000e+00  2.00005126e+00  3.99956274e+00
 2.00002456e+00  2.00003266e+00  2.99963236e+00
 2.00004745e+00  2.00004768e+00  3.99953365e+00
 3.00005007e+00  2.00002599e+00  2.99961162e+00
 3.00006318e+00  2.00004244e+00  3.99948239e+00
 4.00008869e+00  2.00003982e+00  2.99964929e+00
 4.00008154e+00  2.00002789e+00  3.99948692e+00
 5.00011396e+00  2.00004005e+00  2.99964523e+00
 5.00011206e+00  2.00004315e+00  3.99952364e+00
 6.00013733e+00  2.00004196e+00  2.99964929e+00
 6.00013876e+00  2.00004220e+00  3.99952197e+00
 1.00000799e+00  3.00006819e+00  2.99971223e+00
 0.00000000e+00  3.00007272e+00  2.99968410e+00
 1.00001431e+00  3.00008130e+00  3.99956226e+00
 0.00000000e+00  3.00007844e+00  3.99960423e+00
 2.00001264e+00  3.00004244e+00  2.99966908e+00
 2.00004721e+00  3.00008011e+00  3.99949527e+00
 2.99998546e+00  3.00002480e+00  2.99938941e+00
 3.00008368e+00  3.00006390e+00  3.99943161e+00
 1.00001013e+00  4.00009251e+00  2.99972486e+00
 0.00000000e+00  4.00009680e+00  2.99969625e+00
 1.00001216e+00  4.00010538e+00  3.99960852e+00
 0.00000000e+00  4.00009775e+00  3.99961019e+00
 0.00000000e+00  5.00011253e+00  2.99969268e+00
 1.00001204e+00  5.00013638e+00  3.99960923e+00
 0.00000000e+00  5.00012398e+00  3.99957871e+00
 2.00002384e+00  4.00009680e+00  2.99980903e+00
 2.00001717e+00  4.00013256e+00  3.99962330e+00
 2.00003052e+00  5.00015259e+00  3.99961591e+00
 0.00000000e+00  6.00013447e+00  2.99966812e+00
 1.00001180e+00  6.00016546e+00  3.99954700e+00
 0.00000000e+00  6.00016022e+00  3.99955297e+00
 2.00002432e+00  6.00018787e+00  3.99955177e+00
 3.00002670e+00  5.00015879e+00  3.99948835e+00
 3.00004768e+00  6.00017595e+00  3.99950194e+00
 0.00000000e+00  0.00000000e+00  4.99942493e+00
 1.00002742e+00  0.00000000e+00  4.99942398e+00
 1.00002933e+00  1.00002229e+00  4.99942589e+00
 0.00000000e+00  1.00002062e+00  4.99942684e+00
 2.00005198e+00  0.00000000e+00  4.99942303e+00
 2.00005531e+00  1.00002682e+00  4.99942160e+00
 3.00007367e+00  0.00000000e+00  4.99942255e+00
 3.00007558e+00  1.00003052e+00  4.99941635e+00
 4.00009441e+00  0.00000000e+00  4.99942160e+00
 4.00009346e+00  1.00002944e+00  4.99941778e+00
 5.00011539e+00  0.00000000e+00  4.99942112e+00
 5.00011349e+00  1.00002801e+00  4.99942112e+00
 6.00013590e+00  0.00000000e+00  4.99942207e+00
 6.00013590e+00  1.00002980e+00  4.99942446e+00
 1.00003457e+00  2.00004697e+00  4.99942255e+00
 0.00000000e+00  2.00004125e+00  4.99942970e+00
 2.00006342e+00  2.00005484e+00  4.99941111e+00
 3.00008345e+00  2.00005937e+00  4.99939871e+00
 4.00009632e+00  2.00005674e+00  4.99938011e+00
 5.00011063e+00  2.00004673e+00  4.99937439e+00
 6.00012636e+00  2.00005221e+00  4.99938107e+00
 1.00003755e+00  3.00006390e+00  4.99948978e+00
 0.00000000e+00  3.00007081e+00  4.99950027e+00
 2.00006676e+00  3.00007248e+00  4.99941683e+00
 3.00009084e+00  3.00007010e+00  4.99935007e+00
 4.00008011e+00  2.99999928e+00  3.99929881e+00
 4.00010681e+00  3.00007677e+00  4.99932194e+00
 1.00003219e+00  4.00009489e+00  4.99953890e+00
 0.00000000e+00  4.00011349e+00  4.99950790e+00
 2.00005174e+00  4.00006628e+00  4.99945211e+00
 1.00003195e+00  5.00016069e+00  4.99944067e+00
 0.00000000e+00  5.00015354e+00  4.99944401e+00
 1.00002646e+00  6.00019360e+00  4.99944019e+00
 0.00000000e+00  6.00018501e+00  4.99943113e+00
 2.00006342e+00  5.00017071e+00  4.99943876e+00
 2.00007319e+00  6.00019264e+00  4.99943972e+00
 3.00008965e+00  5.00014591e+00  4.99938631e+00
 3.00012565e+00  6.00015783e+00  4.99939680e+00
 3.99998689e+00  5.00012779e+00  3.99927902e+00
 4.00002956e+00  6.00013733e+00  3.99930096e+00
 4.00011492e+00  5.00009918e+00  4.99930954e+00
 4.00014877e+00  6.00011683e+00  4.99932528e+00
 5.00012589e+00  5.00007629e+00  3.99930286e+00
 6.00012541e+00  5.00005674e+00  3.99930453e+00
 6.00014400e+00  6.00005722e+00  3.99930358e+00
 5.00014353e+00  6.00007582e+00  3.99930358e+00
 5.00012302e+00  5.00007534e+00  4.99930334e+00
 6.00012541e+00  5.00005865e+00  4.99930429e+00
 6.00014353e+00  6.00005722e+00  4.99930334e+00
 5.00014448e+00  6.00007582e+00  4.99930334e+00
 0.00000000e+00  0.00000000e+00  5.99930382e+00
 1.00002921e+00  0.00000000e+00  5.99930382e+00
 1.00003183e+00  1.00002289e+00  5.99930382e+00
 0.00000000e+00  1.00002015e+00  5.99930382e+00
 2.00005531e+00  0.00000000e+00  5.99930382e+00
 2.00005889e+00  1.00002849e+00  5.99930382e+00
 3.00007629e+00  0.00000000e+00  5.99930382e+00
 3.00008011e+00  1.00003386e+00  5.99930382e+00
 4.00009489e+00  0.00000000e+00  5.99930382e+00
 4.00009680e+00  1.00003707e+00  5.99930382e+00
 5.00011492e+00  0.00000000e+00  5.99930382e+00
 5.00011349e+00  1.00003719e+00  5.99930382e+00
 6.00013733e+00  0.00000000e+00  5.99930382e+00
 6.00013161e+00  1.00004148e+00  5.99930382e+00
 1.00004053e+00  2.00003529e+00  5.99930382e+00
 0.00000000e+00  2.00002933e+00  5.99930382e+00
 2.00007033e+00  2.00005054e+00  5.99930382e+00
 3.00009036e+00  2.00006390e+00  5.99930382e+00
 4.00010443e+00  2.00007033e+00  5.99930382e+00
 5.00011110e+00  2.00007343e+00  5.99930382e+00
 6.00011921e+00  2.00007820e+00  5.99930382e+00
 1.00004065e+00  3.00005841e+00  5.99930382e+00
 0.00000000e+00  3.00005126e+00  5.99930382e+00
 2.00008965e+00  3.00007653e+00  5.99930382e+00
 3.00010896e+00  3.00008535e+00  5.99930382e+00
 4.00010586e+00  3.00008655e+00  5.99930382e+00
 5.00010586e+00  3.00005984e+00  4.99929380e+00
 5.00011158e+00  3.00008035e+00  5.99930382e+00
 6.00011396e+00  3.00006199e+00  4.99929667e+00
 6.00010967e+00  3.00008106e+00  5.99930382e+00
 3.00008273e+00  4.00007486e+00  4.99926519e+00
 3.00012040e+00  4.00009966e+00  5.99930382e+00
 2.00012422e+00  4.00009012e+00  5.99930382e+00
 4.00011158e+00  4.00007772e+00  4.99930048e+00
 4.00010872e+00  4.00008535e+00  5.99930382e+00
 5.00011063e+00  4.00007772e+00  4.99930429e+00
 5.00011110e+00  4.00007343e+00  5.99930382e+00
 6.00011063e+00  4.00006580e+00  4.99930286e+00
 6.00011015e+00  4.00006199e+00  5.99930382e+00
 0.00000000e+00  4.00014973e+00  5.99930382e+00
 1.00002158e+00  4.00015402e+00  5.99930382e+00
 1.00003922e+00  5.00017309e+00  5.99930382e+00
 0.00000000e+00  5.00017834e+00  5.99930382e+00
 5.00012350e+00  5.00007439e+00  5.99930382e+00
 4.00012493e+00  5.00009489e+00  5.99930382e+00
 6.00012589e+00  5.00005960e+00  5.99930382e+00
 1.00003970e+00  6.00019360e+00  5.99930382e+00
 0.00000000e+00  6.00019360e+00  5.99930382e+00
 2.00007558e+00  5.00016499e+00  5.99930382e+00
 2.00009394e+00  6.00018549e+00  5.99930382e+00
 3.00010800e+00  5.00014019e+00  5.99930382e+00
 3.00014806e+00  6.00014877e+00  5.99930382e+00
 4.00015831e+00  6.00010157e+00  5.99930382e+00
 5.00014830e+00  6.00007486e+00  5.99930382e+00
 6.00014257e+00  6.00005674e+00  5.99930382e+00
</DataArray>
</Points>
<PointData Tensors="Stress_Components,Plastic_strain_components" Vevtors="Spatial_displacement,Reaction_force" Scalars="Equivalent_plastic_strain,Stress_Mises,Stress_Max_Principal,Stress_Mid_Principal,Stress_Min_Principal,Stress_Pressure,Stress_Tresca,Stress_Third_Invariant,Plastic_strain_Max_Principal,Plastic_strain_Min_Principal">
<DataArray type="Float32" Name="Stress_Components" NumberOfComponents="9" format="ascii">
-3.29029001e-03 -1.60258984e-01 -8.17909455e-02 -1.60258984e-01 -6.46121036e-02 1.68596504e-01 -8.17909455e-02 1.68596504e-01 -5.07042402e+00
-3.83475383e-02 -1.78072384e-01 -2.85439020e-01 -1.78072384e-01 -1.92463878e-02 1.35970868e-01 -2.85439020e-01 1.35970868e-01 -4.84379685e+00
-1.72879813e-01 -1.40689205e-01 -2.42297933e-01 -1.40689205e-01 1.39061496e-01 -2.69428154e-01 -2.42297933e-01 -2.69428154e-01 -5.74428368e+00
-1.37488626e-01 -9.29787597e-02 -1.50332406e-01 -9.29787597e-02 3.70885227e-02 -2.09882675e-01 -1.50332406e-01 -2.09882675e-01 -5.38470733e+00
-6.19044608e-01 1.15329378e-01 -1.11398597e-01 1.15329378e-01 -1.43923268e-01 1.43026413e-01 -1.11398597e-01 1.43026413e-01 -4.97935128e+00
-7.57670977e-01 7.75843333e-02 -8.05529816e-01 7.75843333e-02 1.07497466e-01 4.49948064e-01 -8.05529816e-01 4.49948064e-01 -5.44013827e+00
-5.73168080e-01 5.70202190e-02 -3.50120090e-01 5.70202190e-02 -1.76184496e-01 -4.18229873e-01 -3.50120090e-01 -4.18229873e-01 -6.19158828e+00
-4.82131869e-01 1.00978022e-01 7.35708680e-02 1.00978022e-01 6.24959953e-02 -1.29940044e-01 7.35708680e-02 -1.29940044e-01 -5.52158022e+00
-2.23717764e-02 -1.04869622e-01 -5.75955927e-01 -1.04869622e-01 1.70171097e-01 3.68397497e-02 -5.75955927e-01 3.68397497e-02 -4.95024574e+00
1.38548020e-01 -1.80810459e-01 -2.04616789e-01 -1.80810459e-01 4.70047891e-01 4.97324392e-03 -2.04616789e-01 4.97324392e-03 -6.60303998e+00
9.67829426e-02 5.55969993e-01 -1.77779154e+00 5.55969993e-01 6.19376004e-02 3.36843913e-01 -1.77779154e+00 3.36843913e-01 -6.55649050e+00
1.06766120e-01 4.62901354e-01 -1.46754730e+00 4.62901354e-01 -4.69167009e-01 -3.75360623e-01 -1.46754730e+00 -3.75360623e-01 -7.55186629e+00
2.40622857e-03 -7.03762681e-03 -9.40315746e-04 -7.03762681e-03 1.34205841e-03 -1.03555708e-03 -9.40315746e-04 -1.03555708e-03 -1.17173470e-02
-3.14478995e-03 -3.11741536e-03 -3.07139102e-03 -3.11741536e-03 1.21855433e-03 4.51846980e-04 -3.07139102e-03 4.51846980e-04 -6.04304892e-03
3.83753132e-03 -4.03595361e-04 2.36498076e-03 -4.03595361e-04 3.60410195e-04 5.24544995e-03 2.36498076e-03 5.24544995e-03 -1.21669751e-02
4.65625554e-03 -4.32385621e-03 -3.92834190e-04 -4.32385621e-03 -4.24837045e-03 -5.30800223e-03 -3.92834190e-04 -5.30800223e-03 -8.37696716e-03
1.67722208e-03 2.03574169e-03 4.97746514e-03 2.03574169e-03 1.95933459e-03 5.28518483e-03 4.97746514e-03 5.28518483e-03 1.88225461e-03
-1.52796356e-03 1.03773258e-03 4.73572360e-03 1.03773258e-03 -2.29235529e-03 -2.92541739e-03 4.73572360e-03 -2.92541739e-03 9.33902245e-03
-7.37025519e-04 5.14389656e-04 -6.03875099e-03 5.14389656e-04 4.94693697e-04 -7.25178607e-03 -6.03875099e-03 -7.25178607e-03 5.76101802e-03
-3.13794333e-03 1.51239359e-03 -2.55996105e-03 1.51239359e-03 -8.59698397e-04 5.87706733e-03 -2.55996105e-03 5.87706733e-03 9.51648876e-03
-2.19578214e-01 3.35930963e-08 8.85583311e-02 3.35930963e-08 -5.30029349e-02 -2.23488286e-02 8.85583311e-02 -2.23488286e-02 -5.73998332e+00
-1.79153301e-01 -4.01066430e-02 6.78643137e-02 -4.01066430e-02 -1.49182465e-01 -7.04125728e-03 6.78643137e-02 -7.04125728e-03 -5.74506223e+00
-2.32452163e-01 -2.04697161e-01 1.67280556e-01 -2.04697161e-01 -1.38253849e-01 3.65496723e-02 1.67280556e-01 3.65496723e-02 -5.75575012e+00
-2.87771992e-01 -3.79788512e-02 1.54819060e-01 -3.79788512e-02 1.79526841e-02 -4.30425284e-02 1.54819060e-01 -4.30425284e-02 -5.72414553e+00
-5.10289185e-02 4.01632860e-09 4.98302151e-02 4.01632860e-09 -7.60125173e-02 -8.74590594e-03 4.98302151e-02 -8.74590594e-03 -5.85364652e+00
-6.61068727e-02 7.17162550e-03 -1.89220460e-03 7.17162550e-03 -7.11133373e-02 7.19990702e-02 -1.89220460e-03 7.19990702e-02 -5.86058283e+00
-7.91300116e-02 6.31543336e-03 1.78165387e-01 6.31543336e-03 -5.80813823e-03 2.62658597e-02 1.78165387e-01 2.62658597e-02 -5.90417629e+00
-8.63217120e-02 9.06877453e-03 1.76487253e-01 9.06877453e-03 2.00587828e-02 -6.04685163e-02 1.76487253e-01 -6.04685163e-02 -5.95652473e+00
-5.64319144e-02 -9.67055559e-02 1.31919350e-01 -9.67055559e-02 -4.01958317e-01 -1.53632904e-03 1.31919350e-01 -1.53632904e-03 -5.70783484e+00
-1.70621058e-01 -2.82434681e-01 -1.36106410e-01 -2.82434681e-01 -4.52776395e-01 2.65394073e-02 -1.36106410e-01 2.65394073e-02 -5.89925396e+00
-9.31352647e-02 -5.29926282e-03 -1.21570248e-01 -5.29926282e-03 -9.35152792e-02 6.99722585e-02 -1.21570248e-01 6.99722585e-02 -5.84712577e+00
-5.98856732e-02 1.63183411e-03 4.41011381e-02 1.63183411e-03 2.94287044e-02 1.01676269e-01 4.41011381e-02 1.01676269e-01 -5.91630024e+00
2.73158876e-02 -1.73282302e-02 4.61147837e-02 -1.73282302e-02 -5.60943797e-01 5.71571579e-02 4.61147837e-02 5.71571579e-02 -5.71410990e+00
-1.05607790e-01 -1.56801909e-01 -3.30216731e-01 -1.56801909e-01 -6.75825797e-01 -1.11284950e-01 -3.30216731e-01 -1.11284950e-01 -5.99016958e+00
-6.41016448e-02 -5.36506232e-02 -1.02562506e-01 -5.36506232e-02 -1.68258235e-01 4.49273200e-02 -1.02562506e-01 4.49273200e-02 -5.79239941e+00
-3.12067174e-02 -1.14275295e-01 -3.75195088e-01 -1.14275295e-01 -9.60371091e-02 7.90274653e-02 -3.75195088e-01 7.90274653e-02 -5.91337651e+00
-3.07076517e-03 -3.32951243e-03 -1.56287458e-01 -3.32951243e-03 -5.23970999e-01 2.54270975e-02 -1.56287458e-01 2.54270975e-02 -5.75630152e+00
-8.60814130e-02 6.85910131e-02 9.98349348e-03 6.85910131e-02 -3.41479163e-01 -1.42734693e-02 9.98349348e-03 -1.42734693e-02 -6.16026634e+00
1.08483685e-02 -3.03716501e-02 -1.09194677e-01 -3.03716501e-02 -2.05351878e-01 3.98285032e-02 -1.09194677e-01 3.98285032e-02 -5.75487185e+00
-1.20783687e-02 -1.50786957e-01 -3.47897750e-01 -1.50786957e-01 -4.39389288e-01 -2.33735291e-02 -3.47897750e-01 -2.33735291e-02 -5.74424332e+00
-3.80792791e-02 -3.37547547e-03 -1.92943169e-02 -3.37547547e-03 -3.63874763e-01 -1.00672131e-02 -1.92943169e-02 -1.00672131e-02 -5.77050030e+00
-1.18331384e-03 5.13393608e-02 -4.28942063e-02 5.13393608e-02 -2.02993585e-01 7.60827792e-02 -4.28942063e-02 7.60827792e-02 -6.07660508e+00
4.81963884e-02 -1.66013469e-02 -2.07517732e-01 -1.66013469e-02 -2.14353753e-01 2.76062703e-02 -2.07517732e-01 2.76062703e-02 -5.67054486e+00
-9.65274982e-02 -3.47342505e-02 -3.92746544e-02 -3.47342505e-02 -2.18330878e-01 -2.54515486e-02 -3.92746544e-02 -2.54515486e-02 -5.85729283e+00
-5.43230325e-02 -3.65308039e-02 2.16035289e-03 -3.65308039e-02 -3.14392328e-01 6.76594675e-03 2.16035289e-03 6.76594675e-03 -5.70678115e+00
-3.15606843e-02 -4.10235662e-03 1.81550336e-02 -4.10235662e-03 -1.57548640e-01 1.70649278e-02 1.81550336e-02 1.70649278e-02 -5.95364296e+00
1.77109167e-02 2.95424787e-02 -1.73664972e-01 2.95424787e-02 -1.49705824e-01 -2.41657775e-02 -1.73664972e-01 -2.41657775e-02 -5.63955188e+00
-7.96513325e-02 4.02605701e-02 -6.92644063e-02 4.02605701e-02 -2.32134698e-01 2.74424404e-02 -6.92644063e-02 2.74424404e-02 -5.78425634e+00
-6.32819990e-01 -2.63329575e-01 5.77176647e-01 -2.63329575e-01 -1.66072783e-01 -3.27756755e-01 5.77176647e-01 -3.27756755e-01 -5.69233268e+00
-5.55940442e-01 -1.67369738e-01 2.54094899e-01 -1.67369738e-01 1.40190637e-01 -5.22051426e-02 2.54094899e-01 -5.22051426e-02 -5.46837056e+00
5.75751588e-02 -1.30486664e-01 2.64492464e-01 -1.30486664e-01 2.89819750e-01 -2.79244706e-02 2.64492464e-01 -2.79244706e-02 -6.12603486e+00
1.34251789e-02 -5.45411492e-02 5.27049217e-01 -5.45411492e-02 2.50638853e-01 -7.63816498e-02 5.27049217e-01 -7.63816498e-02 -6.01516914e+00
-1.63695369e-01 -4.02036348e-01 1.57142865e-01 -4.02036348e-01 -3.98399992e-01 -4.47328930e-01 1.57142865e-01 -4.47328930e-01 -6.33472334e+00
-1.22595608e-01 -4.63287393e-02 -1.95337372e-01 -4.63287393e-02 2.17807935e-01 -3.93964203e-01 -1.95337372e-01 -3.93964203e-01 -5.58398455e+00
5.65022531e-01 -4.56611856e-01 -1.44504522e+00 -4.56611856e-01 -2.02686002e-01 1.83357549e-01 -1.44504522e+00 1.83357549e-01 -7.22580204e+00
-1.61688745e-01 -5.03053293e-02 -7.16268522e-01 -5.03053293e-02 3.09177456e-02 -2.09275923e-01 -7.16268522e-01 -2.09275923e-01 -5.16254909e+00
1.98162096e-01 1.30191875e-01 -2.63617374e-02 1.30191875e-01 -2.91664172e-02 3.18728196e-01 -2.63617374e-02 3.18728196e-01 -7.06131184e+00
4.40180930e-01 -2.09719813e-01 -1.26161348e+00 -2.09719813e-01 -4.40250407e-01 4.83869947e-01 -1.26161348e+00 4.83869947e-01 -5.91136942e+00
4.19577770e-03 2.12711282e-04 -3.91884319e-02 2.12711282e-04 -8.62149700e-02 1.84115251e-02 -3.91884319e-02 1.84115251e-02 -6.30709004e+00
1.35132458e-01 8.77708364e-02 -1.28227826e-02 8.77708364e-02 4.97080113e-02 3.27537512e-01 -1.28227826e-02 3.27537512e-01 -6.69243801e+00
3.86496261e-03 5.31249773e-03 5.95215429e-03 5.31249773e-03 -2.70037167e-02 1.16417930e-01 5.95215429e-03 1.16417930e-01 -6.18686748e+00
1.34349763e-01 -4.24611010e-02 -7.47135440e-02 -4.24611010e-02 1.12481203e-02 -1.50583420e-01 -7.47135440e-02 -1.50583420e-01 -6.56613731e+00
-7.18889723e-01 -2.66028791e-01 6.67227583e-01 -2.66028791e-01 9.07528895e-02 -7.60008437e-02 6.67227583e-01 -7.60008437e-02 -5.62036828e+00
-6.86713859e-01 -9.18423086e-02 3.14420886e-01 -9.18423086e-02 -2.46319026e-02 5.84901601e-01 3.14420886e-01 5.84901601e-01 -5.01737726e+00
-6.64442325e-03 -9.11816887e-02 3.59955485e-01 -9.11816887e-02 2.72704187e-01 -7.65718311e-01 3.59955485e-01 -7.65718311e-01 -5.34133284e+00
-3.01145747e-01 5.78233302e-02 4.73843776e-01 5.78233302e-02 6.77865893e-02 -8.76032069e-01 4.73843776e-01 -8.76032069e-01 -4.73133302e+00
-6.45709708e-02 -6.24589972e-01 1.45979396e+00 -6.24589972e-01 9.45484060e-01 -1.87459815e+00 1.45979396e+00 -1.87459815e+00 -7.37092257e+00
4.17380118e-01 -2.76971237e-01 1.10961251e-01 -2.76971237e-01 5.10092202e-01 -8.35116386e-01 1.10961251e-01 -8.35116386e-01 -5.86877699e+00
-3.04162598e+00 -1.71210587e+00 -3.81381631e+00 -1.71210587e+00 -1.95065713e+00 -3.78250694e+00 -3.81381631e+00 -3.78250694e+00 -1.43167943e-01
-5.25667151e-01 -2.48378220e-01 -7.02960034e-01 -2.48378220e-01 -5.85650141e-01 -1.02310717e+00 -7.02960034e-01 -1.02310717e+00 -3.16444373e+00
-4.80913028e-01 3.55893629e-02 -5.39756034e-02 3.55893629e-02 3.86596152e-02 9.64529685e-01 -5.39756034e-02 9.64529685e-01 -5.08652564e+00
-5.16027100e-01 -9.03760437e-02 2.03967248e-01 -9.03760437e-02 -1.07756247e-01 5.96568629e-01 2.03967248e-01 5.96568629e-01 -4.87600195e+00
-5.03399860e-01 2.75704184e-01 5.18383314e-01 2.75704184e-01 2.43517415e-01 3.10418535e-01 5.18383314e-01 3.10418535e-01 -4.78691991e+00
-2.52861783e-01 1.64261233e-01 -8.96297768e-02 1.64261233e-01 1.89413504e-01 -3.16854473e-02 -8.96297768e-02 -3.16854473e-02 -4.68563735e+00
-3.09940081e-01 8.47399645e-02 -7.03832880e-02 8.47399645e-02 -5.43059153e-02 4.19826871e-02 -7.03832880e-02 4.19826871e-02 -5.26065767e+00
-3.48574697e-01 2.87117460e-01 -2.83664039e-01 2.87117460e-01 2.75791182e-01 5.92723916e-01 -2.83664039e-01 5.92723916e-01 -6.00767367e+00
-2.73056541e-01 2.61157759e-01 -1.66231103e-01 2.61157759e-01 5.29739082e-01 6.37614980e-01 -1.66231103e-01 6.37614980e-01 -5.95601857e+00
-7.51129068e-01 3.75471100e-01 -2.69167900e-01 3.75471100e-01 3.24567191e-01 1.67238334e+00 -2.69167900e-01 1.67238334e+00 -4.59021121e+00
2.31713224e-01 3.93586986e-01 9.42359686e-01 3.93586986e-01 1.53504464e+00 5.97932264e-01 9.42359686e-01 5.97932264e-01 -7.40898132e+00
-7.59810793e-01 2.05692917e-01 -6.14008331e-01 2.05692917e-01 1.87142676e-01 -5.71352112e-01 -6.14008331e-01 -5.71352112e-01 -6.59659395e+00
-4.71437603e-01 1.07317185e-02 -1.02263875e-01 1.07317185e-02 1.00754790e-01 1.67111069e-01 -1.02263875e-01 1.67111069e-01 -5.54413247e+00
-5.49097106e-01 2.80337328e-01 -6.88026041e-01 2.80337328e-01 1.45134443e-01 1.77771000e-01 -6.88026041e-01 1.77771000e-01 -5.97151232e+00
-6.63081884e-01 1.06066365e-01 -6.31903415e-03 1.06066365e-01 3.58917683e-01 -1.25688590e-01 -6.31903415e-03 -1.25688590e-01 -6.08836484e+00
-8.40024821e-01 -1.90767199e-02 -9.23862442e-01 -1.90767199e-02 -1.18534328e-01 1.83883417e-01 -9.23862442e-01 1.83883417e-01 -6.24075806e+00
-5.38895443e-01 3.10804307e-01 2.35604882e-01 3.10804307e-01 8.31704299e-01 -2.35966325e+00 2.35604882e-01 -2.35966325e+00 -6.38271340e+00
-3.43090794e-01 6.65266315e-03 1.48051791e-01 6.65266315e-03 -3.36119135e-02 -9.82774893e-01 1.48051791e-01 -9.82774893e-01 -5.71319159e+00
1.75015777e-01 9.42964107e-09 3.53132114e-02 9.42964107e-09 -1.06478281e-01 -1.60507374e-02 3.53132114e-02 -1.60507374e-02 -5.95785856e+00
1.30310018e-01 3.98272658e-02 3.19974571e-02 3.98272658e-02 -2.60965582e-02 4.71205879e-02 3.19974571e-02 4.71205879e-02 -5.93475413e+00
1.45007042e-01 1.38784051e-01 -1.42098009e-02 1.38784051e-01 -2.57467192e-02 3.69896330e-02 -1.42098009e-02 3.69896330e-02 -5.98553747e+00
2.18018785e-01 3.30116507e-02 2.96634368e-02 3.30116507e-02 -1.47184575e-01 -1.93670411e-02 2.96634368e-02 -1.93670411e-02 -6.04433906e+00
2.03739540e-02 6.73742183e-02 -3.13242152e-02 6.73742183e-02 1.72769701e-01 8.60274155e-02 -3.13242152e-02 8.60274155e-02 -5.90320063e+00
1.02713693e-02 2.06171529e-01 -6.89831965e-02 2.06171529e-01 1.88597184e-01 4.43716964e-02 -6.89831965e-02 4.43716964e-02 -5.79040182e+00
-7.24340243e-02 3.84964393e-02 -1.32847212e-01 3.84964393e-02 3.12980134e-01 6.10549841e-02 -1.32847212e-01 6.10549841e-02 -5.84893358e+00
-6.93975273e-02 1.29725011e-01 -1.11655782e-01 1.29725011e-01 3.73763241e-01 1.00413075e-01 -1.11655782e-01 1.00413075e-01 -5.65117610e+00
-5.58844348e-02 -2.47804988e-02 -8.56945142e-02 -2.47804988e-02 3.00382987e-01 1.47238392e-02 -8.56945142e-02 1.47238392e-02 -5.77241063e+00
-6.83853831e-02 -9.17558814e-03 -2.38137492e-01 -9.17558814e-03 3.27865212e-01 1.14595741e-01 -2.38137492e-01 1.14595741e-01 -5.59219801e+00
-3.67626827e-03 -4.50196266e-02 -1.40033796e-03 -4.50196266e-02 3.03518355e-01 -3.72879812e-03 -1.40033796e-03 -3.72879812e-03 -5.73322475e+00
1.19322321e-02 -5.01470545e-02 -2.74522411e-01 -5.01470545e-02 1.02563130e-01 5.82678989e-02 -2.74522411e-01 5.82678989e-02 -5.53384256e+00
-8.56754184e-03 -1.02028542e-03 4.71013542e-02 -1.02028542e-03 3.82844031e-01 1.05436118e-02 4.71013542e-02 1.05436118e-02 -5.75362968e+00
2.16712356e-02 -6.42085932e-02 -1.88287668e-01 -6.42085932e-02 1.73163626e-01 -1.69455633e-02 -1.88287668e-01 -1.69455633e-02 -5.63771141e+00
4.17272649e-01 2.28087792e-01 5.26119310e-01 2.28087792e-01 -3.90390940e-02 -8.13047262e-03 5.26119310e-01 -8.13047262e-03 -6.22144580e+00
3.36810373e-01 1.23107180e-01 5.36449417e-01 1.23107180e-01 -5.95970321e-02 -1.53499074e-01 5.36449417e-01 -1.53499074e-01 -6.49633813e+00
2.76229445e-01 2.49043820e-01 -1.81763079e-02 2.49043820e-01 2.06288480e-01 -6.43211417e-03 -1.81763079e-02 -6.43211417e-03 -5.52801561e+00
-3.53168696e-02 1.79590767e-01 -4.66144076e-01 1.79590767e-01 1.10759334e-01 -3.90790862e-02 -4.66144076e-01 -3.90790862e-02 -4.43310675e+00
-8.18616343e-02 8.47839138e-03 -5.49507418e-01 8.47839138e-03 3.69438903e-01 -4.88236978e-02 -5.49507418e-01 -4.88236978e-02 -4.35430162e+00
1.65788700e-01 -1.21302251e-01 -8.14413672e-01 -1.21302251e-01 2.41169381e-01 1.06969886e-02 -8.14413672e-01 1.06969886e-02 -4.48929803e+00
1.76740602e-01 -1.04693967e-01 -7.56177634e-01 -1.04693967e-01 2.74314485e-01 -4.45516268e-02 -7.56177634e-01 -4.45516268e-02 -4.58222310e+00
4.81614927e-01 1.99162513e-02 9.94911681e-01 1.99162513e-02 -1.08428653e-02 -5.21784698e-01 9.94911681e-01 -5.21784698e-01 -5.50325406e+00
7.11078664e-01 -1.44945552e-01 7.88452768e-01 -1.44945552e-01 5.64744532e-01 -2.17526466e-01 7.88452768e-01 -2.17526466e-01 -6.47016033e+00
4.72590490e-01 7.27907910e-03 2.89252733e-01 7.27907910e-03 -2.32414675e-01 -1.01215872e+00 2.89252733e-01 -1.01215872e+00 -4.61981980e+00
2.64704187e-01 8.84454542e-02 -1.01534654e+00 8.84454542e-02 -2.06491758e-01 -6.89666842e-01 -1.01534654e+00 -6.89666842e-01 -2.97912985e+00
-1.28436196e+00 -1.38110363e+00 -2.30769396e+00 -1.38110363e+00 -2.32209492e+00 -2.20519137e+00 -2.30769396e+00 -2.20519137e+00 -1.82494462e-01
-2.56105262e-01 1.13183784e-01 -4.16848263e-01 1.13183784e-01 -1.24305719e-01 -4.92033191e-01 -4.16848263e-01 -4.92033191e-01 -1.03700981e+00
-5.79982214e-02 -4.99004342e-01 -3.68064687e-01 -4.99004342e-01 7.47234911e-01 2.89109237e-01 -3.68064687e-01 2.89109237e-01 -5.89613354e+00
3.70452578e-01 -3.87943695e-01 -3.59598229e-01 -3.87943695e-01 7.39907742e-01 6.44548059e-01 -3.59598229e-01 6.44548059e-01 -6.64112075e+00
1.70242047e+00 -5.22009581e-01 2.90128559e-01 -5.22009581e-01 3.97053406e-01 -1.73532230e+00 2.90128559e-01 -1.73532230e+00 -6.00246739e+00
1.96256998e-01 8.64374299e-02 -3.07923300e-01 8.64374299e-02 7.00201852e-01 2.23555932e-01 -3.07923300e-01 2.23555932e-01 -7.48632407e+00
6.77092262e-02 1.43345684e-01 -2.32421085e-01 1.43345684e-01 2.30483793e-01 -6.86828494e-02 -2.32421085e-01 -6.86828494e-02 -6.98347139e+00
9.82859458e-02 -3.44292065e-02 2.83152231e-01 -3.44292065e-02 -5.34095205e-02 3.80091570e-01 2.83152231e-01 3.80091570e-01 -6.48708904e+00
-1.36700656e-01 1.73910782e-01 8.37859847e-02 1.73910782e-01 7.47695025e-02 1.87513903e-01 8.37859847e-02 1.87513903e-01 -6.42345929e+00
6.72544241e-01 5.02934828e-02 1.52486825e-01 5.02934828e-02 4.03802538e-01 -9.80048254e-02 1.52486825e-01 -9.80048254e-02 -7.02570486e+00
8.04343585e-01 -1.65388137e-01 -6.13177940e-03 -1.65388137e-01 -3.30339823e-01 2.68249350e-01 -6.13177940e-03 2.68249350e-01 -6.42337120e+00
5.88546231e-01 1.10922754e-02 1.90289021e-02 1.10922754e-02 2.36301944e-02 -4.99402858e-01 1.90289021e-02 -4.99402858e-01 -4.32802480e+00
1.01593179e+00 -3.95214008e-02 -6.91999737e-02 -3.95214008e-02 -5.01955003e-02 -1.49166811e-01 -6.91999737e-02 -1.49166811e-01 -4.68159211e+00
-2.39426327e+00 2.40697101e-01 -1.28578380e-01 2.40697101e-01 -3.28519821e-01 -1.69610929e+00 -1.28578380e-01 -1.69610929e+00 5.33459187e-01
-1.70472610e+00 9.03995708e-02 3.16399485e-02 9.03995708e-02 -5.45150816e-01 -1.70399606e+00 3.16399485e-02 -1.70399606e+00 6.05644584e-02
-1.13182603e-01 -1.85892731e-01 7.35417996e-02 -1.85892731e-01 -3.68567258e-02 -4.11242153e-02 7.35417996e-02 -4.11242153e-02 -6.61280692e-01
-2.14773387e-01 -1.50003965e-01 -2.22940020e-02 -1.50003965e-01 -7.03337193e-02 -1.85617387e-01 -2.22940020e-02 -1.85617387e-01 -1.05377964e+00
-2.81194635e-02 -3.85094732e-02 5.16698172e-04 -3.85094732e-02 -6.10354007e-04 -2.96736620e-02 5.16698172e-04 -2.96736620e-02 2.83837840e-02
-2.49205343e-02 -1.44974785e-02 1.92616545e-02 -1.44974785e-02 2.79616658e-02 3.95229943e-02 1.92616545e-02 3.95229943e-02 -3.38846096e-03
1.58352451e-03 -1.81109528e-03 -1.89824924e-02 -1.81109528e-03 6.44184416e-03 -1.63650811e-02 -1.89824924e-02 -1.63650811e-02 -8.37139692e-03
1.83011163e-02 -2.58231424e-02 1.34750418e-02 -2.58231424e-02 -2.21342547e-03 1.33885555e-02 1.34750418e-02 1.33885555e-02 -1.64346118e-02
1.58242757e-01 -3.56614523e-02 -2.45206583e-02 -3.56614523e-02 -6.50308874e-02 -4.31103971e-02 -2.45206583e-02 -4.31103971e-02 -7.58542866e-03
9.69490409e-02 5.07903844e-03 3.16737959e-02 5.07903844e-03 -1.47969522e-01 2.37838179e-02 3.16737959e-02 2.37838179e-02 -1.25138909e-02
-2.79194699e-02 -1.22527047e-02 -1.40520991e-02 -1.22527047e-02 -4.00452018e-02 -5.61293750e-03 -1.40520991e-02 -5.61293750e-03 3.00973030e-02
-9.76576998e-02 -9.42091222e-02 -1.73853971e-02 -9.42091222e-02 1.14699087e-02 -8.99079032e-02 -1.73853971e-02 -8.99079032e-02 1.00575301e-02
2.57703245e-01 -7.00820237e-08 6.17350452e-07 -7.00820237e-08 -1.22743681e-01 5.24218194e-07 6.17350452e-07 5.24218194e-07 -5.99737215e+00
1.87889531e-01 5.35480697e-02 -2.75962520e-07 5.35480697e-02 -6.77287392e-03 3.79440580e-02 -2.75962520e-07 3.79440580e-02 -5.96683145e+00
3.41477800e-01 2.05300877e-01 1.42231183e-02 2.05300877e-01 -1.49032814e-01 5.16647110e-02 1.42231183e-02 5.16647110e-02 -5.95347595e+00
4.14531544e-01 5.87685779e-02 -1.15325027e-02 5.87685779e-02 -2.98055343e-01 3.36149242e-08 -1.15325027e-02 3.36149242e-08 -6.01826644e+00
4.36730552e-02 7.62339421e-02 1.46043021e-07 7.62339421e-02 2.53067762e-01 6.67028353e-02 1.46043021e-07 6.67028353e-02 -5.89217210e+00
1.38998353e-01 2.71405559e-01 3.60352071e-02 2.71405559e-01 1.85639052e-01 7.55624417e-02 3.60352071e-02 7.55624417e-02 -5.76009107e+00
-7.38854781e-02 7.94382207e-02 -1.61977368e-07 7.94382207e-02 5.05364940e-01 5.30173313e-02 -1.61977368e-07 5.30173313e-02 -5.84799433e+00