<VTKFile type="UnstructuredGrid" version="0.1" byte_order="LittleEndian">
<UnstructuredGrid>
<Piece NumberOfPoints="173" NumberOfCells="80">
<Points>
<DataArray type="Float64" NumberOfComponents="3" format="ascii">
 0.00000000e+00  0.00000000e+00  0.00000000e+00
 1.00273693e+00  0.00000000e+00  0.00000000e+00
 1.00324392e+00  1.00881243e+00  0.00000000e+00
 0.00000000e+00  1.00822842e+00  0.00000000e+00
 0.00000000e+00  0.00000000e+00  9.90320563e-01
 1.00295913e+00  0.00000000e+00  9.89709020e-01
 1.00297594e+00  1.00786638e+00  9.90369856e-01
 0.00000000e+00  1.00774932e+00  9.91213858e-01
 2.00642037e+00  0.00000000e+00  0.00000000e+00
 2.00677848e+00  1.01028538e+00  0.00000000e+00
 2.00658965e+00  0.00000000e+00  9.87604320e-01
 2.00683403e+00  1.00852764e+00  9.89134550e-01
 3.01091933e+00  0.00000000e+00  0.00000000e+00
 3.01097584e+00  1.01207280e+00  0.00000000e+00
 3.01175499e+00  0.00000000e+00  9.85565901e-01
 3.01135683e+00  1.00944459e+00  9.87361848e-01
 4.01716566e+00  0.00000000e+00  0.00000000e+00
 4.01579666e+00  1.01333547e+00  0.00000000e+00
 4.01820993e+00  0.00000000e+00  9.84162509e-01
 4.01688290e+00  1.00982463e+00  9.84964192e-01
 5.02571917e+00  0.00000000e+00  0.00000000e+00
 5.02268028e+00  1.01479089e+00  0.00000000e+00
 5.02603149e+00  0.00000000e+00  9.81030583e-01
 5.02420425e+00  1.01037550e+00  9.82696891e-01
 6.03612137e+00  0.00000000e+00  0.00000000e+00
 6.02956343e+00  1.02015674e+00  0.00000000e+00
 6.03370953e+00  0.00000000e+00  9.79174495e-01
 6.03274775e+00  1.01342046e+00  9.79602098e-01
 1.00391626e+00  2.01468992e+00  0.00000000e+00
 0.00000000e+00  2.01413369e+00  0.00000000e+00
 1.00334370e+00  2.01414776e+00  9.92868006e-01
 0.00000000e+00  2.01374340e+00  9.92835522e-01
 2.00762796e+00  2.01627016e+00  0.00000000e+00
 2.00691080e+00  2.01540732e+00  9.93284166e-01
 3.01065016e+00  2.01818514e+00  0.00000000e+00
 3.01016641e+00  2.01666856e+00  9.94670391e-01
 4.01342583e+00  2.02090621e+00  0.00000000e+00
 4.01424742e+00  2.01773071e+00  9.93642628e-01
 5.01591873e+00  2.02249646e+00  0.00000000e+00
 5.01757622e+00  2.01928258e+00  9.94221210e-01
 6.01887035e+00  2.02740335e+00  0.00000000e+00
 6.02268505e+00  2.02430105e+00  9.93924856e-01
 1.00417447e+00  3.01753473e+00  0.00000000e+00
 0.00000000e+00  3.01719856e+00  0.00000000e+00
 1.00353992e+00  3.01751804e+00  9.95200515e-01
 0.00000000e+00  3.01736546e+00  9.94440734e-01
 2.00753307e+00  3.01823425e+00  0.00000000e+00
 2.00687432e+00  3.01815224e+00  9.96708274e-01
 3.00957036e+00  3.01950550e+00  0.00000000e+00
 3.00878048e+00  3.01906061e+00  9.98976529e-01
 4.00996828e+00  3.02114749e+00  0.00000000e+00
 4.00954056e+00  3.01992726e+00  1.00041080e+00
 5.01228189e+00  3.02202415e+00  0.00000000e+00
 5.01190376e+00  3.02091360e+00  1.00082922e+00
 6.01234341e+00  3.02682805e+00  0.00000000e+00
 6.01257563e+00  3.02622628e+00  1.00057638e+00
 1.00400126e+00  4.01873589e+00  0.00000000e+00
 0.00000000e+00  4.01885223e+00  0.00000000e+00
 1.00342238e+00  4.01907730e+00  9.95963693e-01
 0.00000000e+00  4.01913023e+00  9.95354772e-01
 2.00692391e+00  4.01897240e+00  0.00000000e+00
 2.00615311e+00  4.01878309e+00  9.97507989e-01
 3.00807643e+00  4.01960468e+00  0.00000000e+00
 3.00736141e+00  4.01937008e+00  9.99453604e-01
 4.00794744e+00  4.02096033e+00  0.00000000e+00
 4.00785828e+00  4.02096272e+00  9.99984086e-01
 6.00843620e+00  4.02449608e+00  0.00000000e+00
 5.00830030e+00  4.02235222e+00  0.00000000e+00
 6.00848818e+00  4.02466393e+00  1.00000679e+00
 5.00831795e+00  4.02248096e+00  1.00011098e+00
 1.00367594e+00  5.02012444e+00  0.00000000e+00
 0.00000000e+00  5.02054787e+00  0.00000000e+00
 1.00314510e+00  5.02035093e+00  9.95796084e-01
 0.00000000e+00  5.02064466e+00  9.94746089e-01
 2.00615096e+00  5.01953602e+00  0.00000000e+00
 2.00523949e+00  5.01967859e+00  9.97597277e-01
 3.00672650e+00  5.01993799e+00  0.00000000e+00
 3.00635934e+00  5.01988363e+00  9.99576628e-01
 4.00675917e+00  5.02094793e+00  0.00000000e+00
 4.00662756e+00  5.02094364e+00  1.00005722e+00
 5.00663042e+00  5.02248573e+00  0.00000000e+00
 5.00666761e+00  5.02250290e+00  9.99997675e-01
 6.00663137e+00  5.02421474e+00  0.00000000e+00
 6.00666046e+00  5.02416706e+00  9.99958932e-01
 1.00413907e+00  6.02221680e+00  0.00000000e+00
 0.00000000e+00  6.02282000e+00  0.00000000e+00
 1.00322497e+00  6.02222776e+00  9.95194554e-01
 0.00000000e+00  6.02292633e+00  9.93955910e-01
 2.00625563e+00  6.02064753e+00  0.00000000e+00
 2.00519991e+00  6.02130651e+00  9.97004926e-01
 3.00610948e+00  6.02010441e+00  0.00000000e+00
 3.00585699e+00  6.02053308e+00  9.99289036e-01
 4.00554943e+00  6.02103090e+00  0.00000000e+00
 4.00541973e+00  6.02102423e+00  1.00006974e+00
 5.00518322e+00  6.02251673e+00  0.00000000e+00
 5.00516891e+00  6.02252531e+00  1.00003278e+00
 6.00510025e+00  6.02411890e+00  0.00000000e+00
 6.00511408e+00  6.02409172e+00  1.00002527e+00
 0.00000000e+00  0.00000000e+00  1.98138499e+00
 1.00368869e+00  0.00000000e+00  1.98026454e+00
 1.00329947e+00  1.00620615e+00  1.98178470e+00
 0.00000000e+00  1.00654626e+00  1.98246920e+00
 2.00839424e+00  0.00000000e+00  1.97855222e+00
 2.00716305e+00  1.00501883e+00  1.97835124e+00
 3.01349664e+00  0.00000000e+00  1.97503805e+00
 3.01356816e+00  1.00463593e+00  1.97531378e+00
 4.02071190e+00  0.00000000e+00  1.97014093e+00
 4.02007389e+00  1.00513721e+00  1.97421563e+00
 5.02761078e+00  0.00000000e+00  1.96637619e+00
 5.02728081e+00  1.00532925e+00  1.97064948e+00
 6.03293896e+00  0.00000000e+00  1.96399093e+00
 6.03462934e+00  1.00505233e+00  1.96773326e+00
 1.00213349e+00  2.01232147e+00  1.98492205e+00
 0.00000000e+00  2.01274133e+00  1.98650610e+00
 2.00613236e+00  2.01198959e+00  1.98435807e+00
 3.01190567e+00  2.01316357e+00  1.98350728e+00
 4.01897907e+00  2.01458287e+00  1.97864747e+00
 5.02718782e+00  2.01500678e+00  1.97808373e+00
 6.03632355e+00  2.01456022e+00  1.97428894e+00
 1.00184834e+00  3.01747155e+00  1.98922884e+00
 0.00000000e+00  3.01722717e+00  1.99042428e+00
 2.00461817e+00  3.01762033e+00  1.99286044e+00
 3.00408006e+00  3.01782870e+00  2.00091314e+00
 1.00224507e+00  4.01998997e+00  1.99237323e+00
 0.00000000e+00  4.01986980e+00  1.99148190e+00
 2.00429583e+00  4.01939011e+00  1.99539506e+00
 3.00516868e+00  4.01799774e+00  1.99820495e+00
 1.00187230e+00  5.02113914e+00  1.99208915e+00
 0.00000000e+00  5.02150536e+00  1.99110794e+00
 2.00388169e+00  5.02045488e+00  1.99490643e+00
 3.00650525e+00  5.01955986e+00  1.99621153e+00
 1.00109994e+00  6.02346134e+00  1.99011517e+00
 0.00000000e+00  6.02263737e+00  1.99064803e+00
 2.00338650e+00  6.02413368e+00  1.99205220e+00
 3.00705838e+00  6.02345085e+00  1.99312913e+00
 5.00671768e+00  5.02249098e+00  2.00000715e+00
 6.00672483e+00  5.02404213e+00  1.99995935e+00
 6.00515032e+00  6.02406073e+00  2.00002098e+00
 5.00513411e+00  6.02249336e+00  2.00004220e+00
 0.00000000e+00  0.00000000e+00  2.97209883e+00
 1.00515628e+00  0.00000000e+00  2.97128391e+00
 1.00504339e+00  1.00526941e+00  2.97321606e+00
 0.00000000e+00  1.00528109e+00  2.97415614e+00
 2.01129580e+00  0.00000000e+00  2.96833181e+00
 2.00986767e+00  1.00389111e+00  2.97125149e+00
 3.01699328e+00  0.00000000e+00  2.96564102e+00
 3.01704478e+00  1.00276399e+00  2.96669102e+00
 4.02384186e+00  0.00000000e+00  2.96291018e+00
 4.02385521e+00  1.00301981e+00  2.96175408e+00
 5.02960873e+00  0.00000000e+00  2.95916629e+00
 5.03018332e+00  1.00347471e+00  2.95976067e+00
 6.03408623e+00  0.00000000e+00  2.95751333e+00
 6.03518867e+00  1.00263155e+00  2.95838737e+00
 1.00299489e+00  2.00975180e+00  2.97778344e+00
 0.00000000e+00  2.01163673e+00  2.97853899e+00
 2.00862288e+00  2.00917411e+00  2.97119188e+00
 3.01514006e+00  2.01056099e+00  2.96370625e+00
 4.02454281e+00  2.01211405e+00  2.96348166e+00
 5.03179455e+00  2.00993419e+00  2.96158671e+00
 6.03749132e+00  2.00780487e+00  2.96093535e+00
 1.00157511e+00  3.01677346e+00  2.98563957e+00
 0.00000000e+00  3.01673412e+00  2.98312664e+00
 2.00772452e+00  3.01551723e+00  2.97861457e+00
 1.00126624e+00  4.02040195e+00  2.98898125e+00
 0.00000000e+00  4.02125072e+00  2.98795366e+00
 2.00346541e+00  4.02043915e+00  2.99362016e+00
 1.00149465e+00  5.02323437e+00  2.98857737e+00
 0.00000000e+00  5.02226400e+00  2.98920488e+00
 2.00376940e+00  5.02377129e+00  2.98872972e+00
 3.00297451e+00  4.02138662e+00  3.00110531e+00
 3.00827360e+00  5.02135944e+00  2.98929191e+00
 1.00106740e+00  6.02469492e+00  2.98779058e+00
 0.00000000e+00  6.02486753e+00  2.98595190e+00
</DataArray>
</Points>
<PointData Tensors="Stress_Components,Plastic_strain_components" Vevtors="Spatial_displacement,Reaction_force" Scalars="Equivalent_plastic_strain,Stress_Mises,Stress_Max_Principal,Stress_Mid_Principal,Stress_Min_Principal,Stress_Pressure,Stress_Tresca,Stress_Third_Invariant,Plastic_strain_Max_Principal,Plastic_strain_Min_Principal">
<DataArray type="Float32" Name="Stress_Components" NumberOfComponents="9" format="ascii">
-4.25385141e+00 -8.91536474e-04 1.36685092e-04 -8.91536474e-04 4.92611742e+00 -1.74676999e-03 1.36685092e-04 -1.74676999e-03 -2.77601070e+01
-4.89897418e+00 4.18013886e-01 -1.22889597e-03 4.18013886e-01 4.17733526e+00 1.66520461e-01 -1.22889597e-03 1.66520461e-01 -2.93401527e+01
-3.54819411e+00 1.41426471e+00 -7.97561973e-01 1.41426471e+00 3.26638719e+00 -2.43719678e-01 -7.97561973e-01 -2.43719678e-01 -2.92709451e+01
-2.50099218e+00 5.26260436e-01 -4.16050598e-01 5.26260436e-01 4.34318912e+00 4.40155622e-04 -4.16050598e-01 4.40155622e-04 -2.70969152e+01
-3.72225595e+00 7.62102776e-04 8.48978937e-01 7.62102776e-04 4.70768833e+00 -4.27158698e-01 8.48978937e-01 -4.27158698e-01 -2.76093884e+01
-3.84308667e+00 3.02044428e-02 4.57319371e-01 3.02044428e-02 4.00675899e+00 -6.20711900e-01 4.57319371e-01 -6.20711900e-01 -2.87083898e+01
-2.78056453e+00 5.90892090e-01 1.88585829e-01 5.90892090e-01 3.78277675e+00 -9.75127608e-01 1.88585829e-01 -9.75127608e-01 -2.80195262e+01
-2.85709086e+00 1.25541285e-01 3.96313231e-01 1.25541285e-01 4.21941179e+00 -8.45810220e-01 3.96313231e-01 -8.45810220e-01 -2.75429111e+01
-7.61947036e+00 2.29418211e-01 -7.46749435e-03 2.29418211e-01 1.76256792e+00 2.06149193e-02 -7.46749435e-03 2.06149193e-02 -3.50140734e+01
-4.64177154e+00 1.94923639e+00 -1.29461554e+00 1.94923639e+00 2.12320956e+00 7.61024561e-02 -1.29461554e+00 7.61024561e-02 -3.15911908e+01
-3.50641211e+00 2.61615109e-01 9.25976053e-01 2.61615109e-01 3.09861855e+00 -7.84196381e-01 9.25976053e-01 -7.84196381e-01 -2.96730967e+01
-4.49939358e+00 9.21105459e-01 7.35096447e-03 9.21105459e-01 1.55416385e+00 -1.22469403e+00 7.35096447e-03 -1.22469403e+00 -3.24786465e+01
-9.73975134e+00 2.41582394e-01 -1.58120058e-02 2.41582394e-01 -3.68812531e-01 6.65892422e-01 -1.58120058e-02 6.65892422e-01 -3.97015858e+01
-5.79689622e+00 1.24128193e+00 -1.90230563e+00 1.24128193e+00 9.20532325e-01 5.64194238e-02 -1.90230563e+00 5.64194238e-02 -3.43810210e+01
-4.27456081e+00 -3.77227187e-01 9.83926833e-01 -3.77227187e-01 1.09991581e+00 -4.63719215e-01 9.83926833e-01 -4.63719215e-01 -3.30944896e+01
-5.00650659e+00 -1.02991143e-01 6.29449598e-01 -1.02991143e-01 3.52664206e-01 -6.05816328e-01 6.29449598e-01 -6.05816328e-01 -3.43109229e+01
-8.01993012e+00 -9.37763482e-01 -5.97819872e-03 -9.37763482e-01 -5.77788234e-01 5.61760440e-01 -5.97819872e-03 5.61760440e-01 -3.85079908e+01
-8.25202072e+00 -5.65468274e-01 -2.58472610e+00 -5.65468274e-01 -1.54877481e+00 6.90498434e-01 -2.58472610e+00 6.90498434e-01 -3.97618117e+01
-4.75503236e+00 -1.01003288e+00 5.85528634e-01 -1.01003288e+00 -9.43135858e-01 -3.22060607e-01 5.85528634e-01 -3.22060607e-01 -3.60459132e+01
-2.70933353e+00 -1.22618520e+00 6.55405253e-01 -1.22618520e+00 8.17091227e-01 5.93452640e-02 6.55405253e-01 5.93452640e-02 -3.14576519e+01
-7.42805782e+00 -1.51019061e+00 -9.57151316e-03 -1.51019061e+00 -1.36417961e+00 2.13210814e-01 -9.57151316e-03 2.13210814e-01 -3.90026751e+01
-7.28928936e+00 -1.94279411e+00 -2.78004822e+00 -1.94279411e+00 -1.83633482e+00 9.89634596e-01 -2.78004822e+00 9.89634596e-01 -3.88990307e+01
-2.77765083e+00 -1.05719537e+00 1.15639919e+00 -1.05719537e+00 4.08886909e-01 -6.44621491e-01 1.15639919e+00 -6.44621491e-01 -3.23807039e+01
-2.73347030e+00 -1.99318843e+00 1.62124893e+00 -1.99318843e+00 -5.08544885e-01 -5.67787569e-02 1.62124893e+00 -5.67787569e-02 -3.27749613e+01
-1.67573242e+01 -3.56472921e+00 -7.74670392e-03 -3.56472921e+00 -5.83412170e+00 -1.00745988e+00 -7.74670392e-03 -1.00745988e+00 -5.26746864e+01
-1.63164244e+01 -2.71634656e+00 -4.09225774e+00 -2.71634656e+00 -7.31246656e+00 2.53071165e+00 -4.09225774e+00 2.53071165e+00 -5.32613926e+01
-7.03450382e+00 -6.48710087e-01 3.43208760e-01 -6.48710087e-01 -1.02964520e-01 -1.38014179e+00 3.43208760e-01 -1.38014179e+00 -3.72621002e+01
-7.88544866e+00 -1.96546046e+00 5.18601239e-01 -1.96546046e+00 -3.25325329e+00 7.29292408e-02 5.18601239e-01 7.29292408e-02 -4.07731099e+01
1.21236616e+00 1.90045246e+00 -5.58030300e-01 1.90045246e+00 1.76105976e+00 -6.56682730e-01 -5.58030300e-01 -6.56682730e-01 -2.63394241e+01
7.40222573e-01 6.04851305e-01 -5.21359473e-01 6.04851305e-01 1.46151519e+00 -1.76508073e-03 -5.21359473e-01 -1.76508073e-03 -2.74393473e+01
-4.30798877e-01 1.32533477e+00 1.24022888e+00 1.32533477e+00 2.12061628e+00 -9.71180014e-01 1.24022888e+00 -9.71180014e-01 -2.76801248e+01
7.08093464e-01 5.48569925e-01 1.03917000e+00 5.48569925e-01 3.60377769e+00 -1.69306349e-01 1.03917000e+00 -1.69306349e-01 -2.51109786e+01
2.82503272e+00 2.59153944e+00 -1.21233739e+00 2.59153944e+00 3.03532207e+00 -9.38646898e-01 -1.21233739e+00 -9.38646898e-01 -2.28008847e+01
4.81410831e-01 1.55102721e+00 1.74861684e+00 1.55102721e+00 2.65826418e+00 -4.69924584e-02 1.74861684e+00 -4.69924584e-02 -2.59936897e+01
7.41515976e+00 1.74047342e+00 -1.94605236e+00 1.74047342e+00 7.42068383e+00 -6.00288197e-01 -1.94605236e+00 -6.00288197e-01 -1.34493544e+01
1.43426685e+00 1.84141889e-01 3.43395322e+00 1.84141889e-01 3.40067513e+00 7.50616814e-01 3.43395322e+00 7.50616814e-01 -2.42130980e+01
7.73235905e+00 -1.04794769e+00 -3.47387865e+00 -1.04794769e+00 8.01014096e+00 8.17849107e-01 -3.47387865e+00 8.17849107e-01 -1.19963893e+01
-3.46839805e-01 -2.56000393e+00 4.34160427e+00 -2.56000393e+00 2.80706442e+00 1.53898879e+00 4.34160427e+00 1.53898879e+00 -2.58893611e+01
1.09240305e+01 -1.55861433e+00 -3.52364638e+00 -1.55861433e+00 8.14557624e+00 2.10670346e+00 -3.52364638e+00 2.10670346e+00 -6.65502262e+00
-1.46690547e-01 -3.26350276e+00 4.94680142e+00 -3.26350276e+00 7.38901923e-01 4.13879819e+00 4.94680142e+00 4.13879819e+00 -2.61946848e+01
9.38507348e+00 -2.08653253e+00 -4.06623185e+00 -2.08653253e+00 4.12623787e+00 4.27252227e+00 -4.06623185e+00 4.27252227e+00 -1.26656489e+01
-7.73706214e+00 -6.00896072e+00 5.40461516e+00 -6.00896072e+00 -6.42941411e+00 6.51626404e+00 5.40461516e+00 6.51626404e+00 -4.01162416e+01
5.49067163e+00 1.07569376e+00 -5.07659987e-02 1.07569376e+00 -6.48143232e-01 -1.04925102e+00 -5.07659987e-02 -1.04925102e+00 -2.38127179e+01
3.83932745e+00 6.21063799e-01 2.92629138e-01 6.21063799e-01 -2.22998151e+00 -2.59402744e-03 2.92629138e-01 -2.59402744e-03 -2.75824976e+01
3.50814602e+00 8.11492020e-01 2.06195226e+00 8.11492020e-01 -3.17667246e-01 -2.15474786e-01 2.06195226e+00 -2.15474786e-01 -2.59310708e+01
4.39653420e+00 2.90560581e-01 1.89379206e+00 2.90560581e-01 1.20473044e+00 8.97879124e-01 1.89379206e+00 8.97879124e-01 -2.35170922e+01
7.99109387e+00 1.74266836e+00 -6.52581472e-02 1.74266836e+00 2.23334426e+00 -1.41160041e+00 -6.52581472e-02 -1.41160041e+00 -1.81339626e+01
7.91033670e+00 9.92591441e-01 3.03035218e+00 9.92591441e-01 3.69852099e+00 1.28667397e+00 3.03035218e+00 1.28667397e+00 -1.70023019e+01
1.35798759e+01 1.17085032e+00 -1.63195220e+00 1.17085032e+00 9.88086158e+00 -2.53820282e+00 -1.63195220e+00 -2.53820282e+00 -4.88286465e+00
1.39588241e+01 -1.33356423e+00 2.09231561e+00 -1.33356423e+00 9.18374449e+00 -2.56193717e-01 2.09231561e+00 -2.56193717e-01 4.65836684e-01
1.67253586e+01 -4.90508588e+00 -5.04102556e+00 -4.90508588e+00 1.30192216e+01 -1.49774887e+00 -5.04102556e+00 -1.49774887e+00 1.14104176e+01
4.03100403e+00 -6.29192432e+00 4.29071490e+00 -6.29192432e+00 8.45867380e+00 2.76951879e+00 4.29071490e+00 2.76951879e+00 7.61713982e-01
1.58412351e+01 4.14072673e+00 -6.92188569e+00 4.14072673e+00 6.46002513e+00 -1.51298279e+00 -6.92188569e+00 -1.51298279e+00 1.24320711e+01
1.08347972e-01 7.41197427e-01 5.13836193e+00 7.41197427e-01 5.83403881e+00 -1.77252456e+00 5.13836193e+00 -1.77252456e+00 -3.68373950e-01
9.90170407e+00 -5.80313480e+00 -7.99496770e-01 -5.80313480e+00 -5.87377453e+00 2.75549310e+00 -7.99496770e-01 2.75549310e+00 7.19009209e+00
-1.02037859e+00 -2.84436584e+00 5.22665453e+00 -2.84436584e+00 -1.08129578e+01 -2.56180391e-02 5.22665453e+00 -2.56180391e-02 -1.84195566e+00
6.03409338e+00 -2.73474358e-01 6.88444421e-01 -2.73474358e-01 -2.96375509e+00 -1.21754289e+00 6.88444421e-01 -1.21754289e+00 -2.51457453e+01
4.94124889e+00 -3.03727090e-01 5.18457443e-01 -3.03727090e-01 -3.77695465e+00 7.36443326e-05 5.18457443e-01 7.36443326e-05 -2.74207582e+01
5.72842792e+00 -7.85221186e-01 2.05612598e+00 -7.85221186e-01 -1.53267655e+00 2.90669577e-01 2.05612598e+00 2.90669577e-01 -2.41558695e+01
4.99994731e+00 -2.20367827e-01 1.04105028e+00 -2.20367827e-01 -2.14287031e+00 1.04504421e+00 1.04105028e+00 1.04504421e+00 -2.57737665e+01
8.05122244e+00 -3.39551732e-01 -7.26320580e-01 -3.39551732e-01 4.09525335e-02 -2.29250446e+00 -7.26320580e-01 -2.29250446e+00 -1.98606911e+01
8.03652877e+00 -1.71075278e+00 2.02879533e+00 -1.71075278e+00 6.55122466e-01 1.28810749e+00 2.02879533e+00 1.28810749e+00 -1.87388424e+01
1.01670396e+01 -2.05600646e+00 -2.05828205e+00 -2.05600646e+00 7.69235550e+00 -5.73263001e+00 -2.05828205e+00 -5.73263001e+00 -6.93416917e+00
1.13491186e+01 -9.00739938e-01 -1.30221666e+00 -9.00739938e-01 5.13924269e+00 1.46425335e+00 -1.30221666e+00 1.46425335e+00 -1.04013485e+01
1.04252569e+01 -7.27733215e-01 -1.20465154e+00 -7.27733215e-01 7.01806613e+00 -2.45594831e+00 -1.20465154e+00 -2.45594831e+00 5.65070875e+00
1.62875220e+01 4.84069664e+00 -4.64482228e-01 4.84069664e+00 6.02742449e+00 4.52892576e+00 -4.64482228e-01 4.52892576e+00 -1.46809055e+00
5.93606949e+00 -2.16956377e-01 1.87756884e+00 -2.16956377e-01 -1.44772549e+01 5.21074429e-01 1.87756884e+00 5.21074429e-01 2.70827365e+00
5.46914033e+00 -5.24593798e+00 2.39453332e+00 -5.24593798e+00 2.21986914e+00 3.77549122e-01 2.39453332e+00 3.77549122e-01 1.13323998e+00
9.45094061e+00 -2.00137782e+00 1.85049772e-01 -2.00137782e+00 -1.63288298e+01 -5.70990209e-01 1.85049772e-01 -5.70990209e-01 5.20938206e+00
5.16426039e+00 -1.74416025e+00 -2.00470389e+00 -1.74416025e+00 4.48743674e+00 8.90108744e-02 -2.00470389e+00 8.90108744e-02 -9.28813577e-01
3.56189066e+00 -1.16413902e+00 5.70188515e-01 -1.16413902e+00 -2.07704664e+00 -1.11163010e+00 5.70188515e-01 -1.11163010e+00 -2.77204032e+01
3.16840720e+00 -8.74028325e-01 1.41121030e-01 -8.74028325e-01 -3.24666178e+00 3.01951496e-03 1.41121030e-01 3.01951496e-03 -2.93964891e+01
3.65879317e+00 -1.47705904e+00 2.47509286e-01 -1.47705904e+00 -1.15266971e+00 1.30827194e+00 2.47509286e-01 1.30827194e+00 -2.65001023e+01
3.11111844e+00 -6.05315134e-01 -4.36088063e-01 -6.05315134e-01 -2.28769988e+00 2.13547254e+00 -4.36088063e-01 2.13547254e+00 -2.82198591e+01
3.52661908e+00 -8.44613642e-01 6.62068829e-01 -8.44613642e-01 9.70253199e-02 -3.54131627e+00 6.62068829e-01 -3.54131627e+00 -2.44420972e+01
3.32671288e+00 -2.53310630e+00 6.04954112e-01 -2.53310630e+00 1.42282216e+00 2.43416999e+00 6.04954112e-01 2.43416999e+00 -2.40153260e+01
5.91277853e+00 -1.33639729e+00 -8.61879021e-01 -1.33639729e+00 7.01256180e+00 -4.76239663e+00 -8.61879021e-01 -4.76239663e+00 -1.65407081e+01
3.25876607e+00 7.75841673e-02 -1.23855603e+00 7.75841673e-02 2.91919798e+00 6.98711623e+00 -1.23855603e+00 6.98711623e+00 -2.05864646e+01
-1.65834165e+00 1.34437847e+00 -9.33307745e-02 1.34437847e+00 1.82668763e+00 -2.89916211e+00 -9.33307745e-02 -2.89916211e+00 2.57357161e+00
4.42118278e+00 2.03159493e+00 7.60476857e-01 2.03159493e+00 -4.44514930e-01 1.83159357e+00 7.60476857e-01 1.83159357e+00 -8.81095277e-01
-2.50573671e+00 1.55554152e+00 3.54297601e-01 1.55554152e+00 3.59931131e+00 7.72042796e-01 3.54297601e-01 7.72042796e-01 1.10179782e-02
2.63551521e-01 1.30890259e+00 -2.74550533e-01 1.30890259e+00 7.08886719e-01 -1.53088271e-01 -2.74550533e-01 -1.53088271e-01 -2.78353888e-01
1.59408394e+00 1.27234393e+00 -9.89552826e-01 1.27234393e+00 -6.29664934e+00 6.09460562e-01 -9.89552826e-01 6.09460562e-01 -2.09098637e-01
2.00381640e+00 5.10407289e-01 -9.40321108e-01 5.10407289e-01 -6.69695671e+00 4.39077069e-02 -9.40321108e-01 4.39077069e-02 1.10460236e+00
1.12594533e+00 -1.50496255e+00 -3.91656840e-02 -1.50496255e+00 -2.85355270e+00 -1.78539991e+00 -3.91656840e-02 -1.78539991e+00 -3.12155304e+01
1.67149520e+00 -9.71691906e-01 2.94214815e-01 -9.71691906e-01 -4.99886751e+00 2.50422023e-03 2.94214815e-01 2.50422023e-03 -3.29279251e+01
7.34255403e-01 -1.45971113e+00 1.36567622e-01 -1.45971113e+00 -2.47006420e+00 -8.67999867e-02 1.36567622e-01 -8.67999867e-02 -3.15567269e+01
1.77473909e+00 -1.53419429e+00 -1.57251453e+00 -1.53419429e+00 -2.30157065e+00 2.30798650e+00 -1.57251453e+00 2.30798650e+00 -2.99944029e+01
-2.75821686e+00 -2.72821200e+00 2.79691792e+00 -2.72821200e+00 2.70465672e-01 -4.32074475e+00 2.79691792e+00 -4.32074475e+00 -3.05619612e+01
-2.83975974e+00 -2.90734547e+00 2.88345641e+00 -2.90734547e+00 -1.76341400e-01 2.08684841e+00 2.88345641e+00 2.08684841e+00 -3.25375862e+01
-7.78345692e+00 -3.56753087e+00 6.32717681e+00 -3.56753087e+00 9.84820914e+00 -2.31686980e+00 6.32717681e+00 -2.31686980e+00 -1.94333706e+01
-7.18325933e+00 -3.90989914e+00 3.34846316e+00 -3.90989914e+00 2.52092044e-01 9.63918988e+00 3.34846316e+00 9.63918988e+00 -2.72006804e+01
-1.88063660e+01 -3.52652073e-02 9.31486487e-03 -3.52652073e-02 4.66931748e+00 -2.86097193e+00 9.31486487e-03 -2.86097193e+00 3.45999146e+00
-1.54013748e+01 -4.06458187e+00 2.50163760e-01 -4.06458187e+00 3.96731448e+00 5.29217601e+00 2.50163760e-01 5.29217601e+00 9.43968058e-01
-9.05682182e+00 2.00535178e+00 1.79364651e-01 2.00535178e+00 1.60205802e+00 -2.95893326e-01 1.79364651e-01 -2.95893326e-01 1.62360189e+00
-5.38377325e+00 9.55921412e-01 6.26673281e-01 9.55921412e-01 5.67274352e-01 -8.00615291e-01 6.26673281e-01 -8.00615291e-01 6.14915421e-01
-2.94902825e+00 1.47861481e+00 -5.60929298e-01 1.47861481e+00 -3.48837590e+00 2.88535565e-01 -5.60929298e-01 2.88535565e-01 1.50488198e+00
-1.58315015e+00 4.17655528e-01 7.79977083e-01 4.17655528e-01 -2.43745953e+00 3.60452235e-01 7.79977083e-01 3.60452235e-01 1.08315793e+00
-2.02381289e+00 -6.29658636e-04 5.71940988e-01 -6.29658636e-04 3.26996040e+00 -1.25099283e+00 5.71940988e-01 -1.25099283e+00 -2.81238537e+01
-1.44579887e+00 -3.09464626e-01 1.40015894e+00 -3.09464626e-01 2.34671716e+00 -4.21192583e-01 1.40015894e+00 -4.21192583e-01 -2.87227483e+01
-1.47163025e+00 -1.38171142e+00 1.00589905e+00 -1.38171142e+00 3.49631612e+00 -7.21089313e-01 1.00589905e+00 -7.21089313e-01 -2.70544295e+01
-2.46955881e+00 -2.55726084e-01 1.18275574e+00 -2.55726084e-01 3.59169242e+00 -4.47080791e-01 1.18275574e+00 -4.47080791e-01 -2.79323611e+01
1.29011270e+00 -1.18441850e+00 -3.11588775e-03 -1.18441850e+00 1.68639585e+00 -3.38978991e-02 -3.11588775e-03 -3.38978991e-02 -2.69182086e+01
-3.74677539e-01 -1.78228746e+00 3.63650262e-01 -1.78228746e+00 1.43750595e+00 -1.66093822e+00 3.63650262e-01 -1.66093822e+00 -2.79443099e+01
2.75648380e+00 9.80623625e-02 1.48439128e-01 9.80623625e-02 3.44123513e-01 -1.21659055e+00 1.48439128e-01 -1.21659055e+00 -2.66670175e+01
-5.41127309e-01 -7.15471543e-01 3.62950489e-01 -7.15471543e-01 -4.42720320e-01 4.48661704e-01 3.62950489e-01 4.48661704e-01 -3.04517665e+01
1.64047551e+00 -5.95277563e-01 3.02399337e+00 -5.95277563e-01 -1.86855361e+00 -1.21441658e+00 3.02399337e+00 -1.21441658e+00 -2.96931047e+01
-6.48650981e-01 -4.70637795e-01 6.71345131e-01 -4.70637795e-01 -5.73260486e-02 1.00907530e+00 6.71345131e-01 1.00907530e+00 -3.06502510e+01
2.10053146e+00 -4.01894093e-01 3.08418477e+00 -4.01894093e-01 7.34654672e-01 -9.03528325e-01 3.08418477e+00 -9.03528325e-01 -2.63055634e+01
8.45306776e-01 -1.72973800e-01 1.80433919e+00 -1.72973800e-01 7.34866530e-01 -5.24467453e-02 1.80433919e+00 -5.24467453e-02 -2.80650240e+01
3.44932485e+00 1.45374507e+00 2.74234772e+00 1.45374507e+00 3.18844211e+00 -1.33143449e+00 2.74234772e+00 -1.33143449e+00 -2.23587799e+01
3.86479843e+00 8.70186374e-01 2.41058394e-01 8.70186374e-01 3.21840584e+00 -1.08508963e+00 2.41058394e-01 -1.08508963e+00 -2.21698406e+01
-1.31156553e+00 -1.26814847e+00 1.49645597e+00 -1.26814847e+00 4.06229734e+00 -1.57638438e+00 1.49645597e+00 -1.57638438e+00 -2.61979685e+01
-1.95511799e+00 -6.25440910e-01 3.25678396e+00 -6.25440910e-01 4.89648443e+00 -1.63116434e+00 3.25678396e+00 -1.63116434e+00 -2.50081649e+01
-7.66600265e+00 -9.16505613e-01 3.94784258e+00 -9.16505613e-01 -4.03715663e+00 -1.85001067e-01 3.94784258e+00 -1.85001067e-01 -4.20555608e+01
-1.47464354e+01 -1.95159976e+00 7.17113128e+00 -1.95159976e+00 -1.21934162e+01 3.53029013e-01 7.17113128e+00 3.53029013e-01 -5.64405342e+01
-9.95729327e+00 -1.52440935e-01 1.54476994e+00 -1.52440935e-01 -6.63093078e+00 2.21610989e+00 1.54476994e+00 2.21610989e+00 -4.75359535e+01
-1.24586053e+01 4.57508862e-03 2.81756067e+00 4.57508862e-03 -1.01172353e+01 4.28057449e+00 2.81756067e+00 4.28057449e+00 -5.32589521e+01
-1.21510522e+01 4.93029535e-01 -4.38971102e-01 4.93029535e-01 -9.93123913e+00 3.33463877e+00 -4.38971102e-01 3.33463877e+00 -5.30141029e+01
1.67098499e+00 2.69212129e-01 4.55666816e+00 2.69212129e-01 5.30240913e+00 -2.82487184e-01 4.55666816e+00 -2.82487184e-01 -2.03529305e+01
2.50779103e-01 2.90554571e-02 2.77321440e+00 2.90554571e-02 4.91713790e+00 -1.78732476e+00 2.77321440e+00 -1.78732476e+00 -2.33885002e+01
-6.86413310e+00 -8.51745807e-01 6.17086758e+00 -8.51745807e-01 -1.91315161e+00 6.85536166e+00 6.17086758e+00 6.85536166e+00 -3.48786462e+01
-1.64912467e+01 -2.27067900e+00 3.70823669e+00 -2.27067900e+00 -5.34060657e+00 1.06808226e+01 3.70823669e+00 1.06808226e+01 -3.40099096e+00
3.96063907e+00 -4.26567578e-01 3.66970360e+00 -4.26567578e-01 2.15697118e+00 1.69614981e+00 3.66970360e+00 1.69614981e+00 -2.08450587e+01
3.41595399e+00 4.09269392e-01 2.78697875e+00 4.09269392e-01 2.76065536e+00 2.05539683e+00 2.78697875e+00 2.05539683e+00 -2.26928954e+01
7.15879497e+00 -4.14592729e+00 3.99402999e+00 -4.14592729e+00 6.24408053e+00 3.86013763e+00 3.99402999e+00 3.86013763e+00 -1.29496577e+01
8.06651338e+00 5.48764338e-01 -9.68570310e+00 5.48764338e-01 9.16237537e+00 5.24825247e+00 -9.68570310e+00 5.24825247e+00 -1.98342673e+00
1.77325366e+00 -2.48659976e+00 6.38592644e-01 -2.48659976e+00 9.35557429e-01 2.24731638e+00 6.38592644e-01 2.24731638e+00 -2.55663710e+01
5.06013781e+00 -1.08740298e+00 1.02979416e+00 -1.08740298e+00 2.31349277e+00 2.42328990e+00 1.02979416e+00 2.42328990e+00 -2.19790478e+01
6.75216414e-01 -2.46900337e+00 4.93911469e-01 -2.46900337e+00 2.12752726e-01 2.52265432e+00 4.93911469e-01 2.52265432e+00 -2.68495880e+01
1.51695149e+00 4.59277980e-01 -3.52528203e+00 4.59277980e-01 4.77104276e-01 3.38248426e+00 -3.52528203e+00 3.38248426e+00 -2.79982819e+01
-9.36073452e-01 9.13503403e-02 -1.26736195e+00 9.13503403e-02 2.59571761e+00 -6.47333622e-01 -1.26736195e+00 -6.47333622e-01 -2.80574703e+01
9.90797281e-01 2.08446127e+00 1.36950040e+00 2.08446127e+00 1.47129357e+00 -1.37658536e+00 1.36950040e+00 -1.37658536e+00 -2.72588758e+01
-2.07550335e+00 -1.06511548e-01 1.27066611e+00 -1.06511548e-01 9.57263649e-01 -8.35664310e-02 1.27066611e+00 -8.35664310e-02 -3.18272336e+01
-1.49390607e+01 4.08305176e-01 1.64331263e+00 4.08305176e-01 -1.35647049e+01 5.60073733e+00 1.64331263e+00 5.60073733e+00 -6.13146400e+01
1.03376910e-01 -6.69635206e-01 7.20434934e-02 -6.69635206e-01 -9.07533467e-02 -1.07124899e-01 7.20434934e-02 -1.07124899e-01 -3.63688655e-01
-2.47551411e-01 -4.86796528e-01 -3.06947708e-01 -4.86796528e-01 2.42485322e-01 -1.24464273e-01 -3.06947708e-01 -1.24464273e-01 -3.46012163e-01
1.92047929e-01 -1.44702055e-01 3.51920284e-01 -1.44702055e-01 3.16236824e-01 2.05753714e-01 3.51920284e-01 2.05753714e-01 -8.59349251e-01
1.62116542e-01 -3.27600747e-01 -2.36336991e-01 -3.27600747e-01 -3.97752330e-01 -2.48678565e-01 -2.36336991e-01 -2.48678565e-01 -1.15453884e-01
4.14886862e-01 -5.92861325e-05 2.00429440e+00 -5.92861325e-05 8.16155605e-01 -4.94261011e-01 2.00429440e+00 -4.94261011e-01 -2.85049067e+01
7.40349397e-01 7.61514320e-03 1.59516448e+00 7.61514320e-03 2.20774218e-01 1.66705512e-01 1.59516448e+00 1.66705512e-01 -2.88060694e+01
3.71137102e-01 -1.63397802e+00 2.15750254e+00 -1.63397802e+00 4.10739598e-01 6.11845084e-01 2.15750254e+00 6.11845084e-01 -2.86482875e+01
-6.00145832e-01 9.03031789e-02 2.03370936e+00 9.03031789e-02 8.72598529e-01 -9.83193040e-01 2.03370936e+00 -9.83193040e-01 -2.94693050e+01
2.49804698e+00 -1.56144160e+00 2.52522725e+00 -1.56144160e+00 -1.18013880e+00 1.92216229e-01 2.52522725e+00 1.92216229e-01 -2.79812684e+01
1.55467059e+00 -2.49595670e+00 1.59303662e+00 -2.49595670e+00 -8.81755089e-01 7.35453442e-01 1.59303662e+00 7.35453442e-01 -2.84990027e+01
4.33723581e+00 1.00884063e-01 9.45965216e-01 1.00884063e-01 -2.36798334e+00 1.21304417e+00 9.45965216e-01 1.21304417e+00 -2.70560455e+01
1.86274017e+00 -1.12903599e+00 -6.05671525e-01 -1.12903599e+00 -1.60553319e+00 -8.62175196e-01 -6.05671525e-01 -8.62175196e-01 -2.90248940e+01
5.50820175e+00 1.17460253e-01 -1.09764077e+00 1.17460253e-01 -1.28286071e+00 -3.43046889e-01 -1.09764077e+00 -3.43046889e-01 -2.47029831e+01
-8.55805930e-01 5.68481207e-01 -8.69616710e-01 5.68481207e-01 -2.75524524e+00 -1.01654701e-01 -8.69616710e-01 -1.01654701e-01 -3.33880713e+01
5.71925926e+00 6.00576729e-01 8.76276299e-01 6.00576729e-01 1.68867600e+00 -1.09785461e+00 8.76276299e-01 -1.09785461e+00 -2.16783495e+01