<VTKFile type="UnstructuredGrid" version="0.1" byte_order="LittleEndian">
<UnstructuredGrid>
<Piece NumberOfPoints="191" NumberOfCells="79">
<Points>
<DataArray type="Float64" NumberOfComponents="3" format="ascii">
 1.00032401e+00  5.00462961e+00  1.99800074e+00
 2.00068879e+00  5.00450134e+00  1.99862337e+00
 2.00053287e+00  6.00509024e+00  1.99800050e+00
 1.00016391e+00  6.00500727e+00  1.99756515e+00
 1.00024068e+00  5.00512409e+00  2.99715161e+00
 2.00055695e+00  5.00526285e+00  2.99725342e+00
 2.00013924e+00  6.00617361e+00  2.99632978e+00
 1.00007892e+00  6.00522757e+00  2.99699044e+00
 3.00106382e+00  5.00435925e+00  1.99888647e+00
 3.00107837e+00  6.00490093e+00  1.99836791e+00
 3.00141335e+00  5.00467348e+00  2.99771929e+00
 3.00286078e+00  6.00744343e+00  2.99313855e+00
 5.00123167e+00  5.00517082e+00  2.00000072e+00
 6.00123167e+00  5.00564957e+00  1.99997056e+00
 6.00074768e+00  6.00565767e+00  2.00001907e+00
 5.00073671e+00  6.00517464e+00  2.00003719e+00
 5.00125694e+00  5.00512362e+00  2.99999189e+00
 6.00125408e+00  5.00561190e+00  2.99997187e+00
 6.00076818e+00  6.00560713e+00  3.00001454e+00
 5.00077343e+00  6.00512028e+00  3.00004768e+00
 0.00000000e+00  0.00000000e+00  2.99296904e+00
 1.00116086e+00  0.00000000e+00  2.99270535e+00
 1.00109172e+00  1.00113380e+00  2.99323893e+00
 0.00000000e+00  1.00118184e+00  2.99348021e+00
 0.00000000e+00  0.00000000e+00  3.99057221e+00
 1.00172567e+00  0.00000000e+00  3.99047232e+00
 1.00174618e+00  1.00099623e+00  3.99047709e+00
 0.00000000e+00  1.00098932e+00  3.99085498e+00
 2.00250888e+00  0.00000000e+00  2.99195004e+00
 2.00222158e+00  1.00080991e+00  2.99268031e+00
 2.00334334e+00  0.00000000e+00  3.99002194e+00
 2.00340438e+00  1.00105131e+00  3.98966455e+00
 3.00387430e+00  0.00000000e+00  2.99122047e+00
 3.00385761e+00  1.00055432e+00  2.99148655e+00
 3.00485563e+00  0.00000000e+00  3.98915505e+00
 3.00482655e+00  1.00095117e+00  3.98889852e+00
 4.00544214e+00  0.00000000e+00  2.99049687e+00
 4.00543213e+00  1.00062120e+00  2.99019265e+00
 4.00610542e+00  0.00000000e+00  3.98841572e+00
 4.00612020e+00  1.00074303e+00  3.98808718e+00
 5.00672007e+00  0.00000000e+00  2.98961329e+00
 5.00685596e+00  1.00073147e+00  2.98969316e+00
 5.00708055e+00  0.00000000e+00  3.98815012e+00
 5.00713825e+00  1.00058985e+00  3.98759508e+00
 6.00762272e+00  0.00000000e+00  2.98919296e+00
 6.00792599e+00  1.00049281e+00  2.98938322e+00
 6.00773621e+00  0.00000000e+00  3.98802447e+00
 6.00802469e+00  1.00038493e+00  3.98757887e+00
 1.00061810e+00  2.00217128e+00  2.99439073e+00
 0.00000000e+00  2.00259495e+00  2.99465108e+00
 1.00175595e+00  2.00232553e+00  3.99191976e+00
 0.00000000e+00  2.00236702e+00  3.99226403e+00
 2.00183916e+00  2.00197816e+00  2.99237490e+00
 2.00369573e+00  2.00235605e+00  3.99010038e+00
 3.00332880e+00  2.00221062e+00  2.99052310e+00
 3.00494218e+00  2.00212073e+00  3.98712444e+00
 4.00564480e+00  2.00265479e+00  2.99080229e+00
 4.00591707e+00  2.00157380e+00  3.98661566e+00
 5.00725460e+00  2.00211453e+00  2.99008012e+00
 5.00730610e+00  2.00186563e+00  3.98731685e+00
 6.00850773e+00  2.00158858e+00  2.99000406e+00
 6.00861549e+00  2.00142336e+00  3.98721838e+00
 1.00028455e+00  3.00372767e+00  2.99649692e+00
 0.00000000e+00  3.00382900e+00  2.99575591e+00
 1.00109029e+00  3.00396371e+00  3.99287462e+00
 0.00000000e+00  3.00347662e+00  3.99507260e+00
 2.00161958e+00  3.00344062e+00  2.99447751e+00
 2.00384784e+00  3.00412321e+00  3.98888803e+00
 3.00122333e+00  3.00236297e+00  2.98308873e+00
 3.00611186e+00  3.00315070e+00  3.98585868e+00
 1.00020015e+00  4.00460672e+00  2.99735355e+00
 0.00000000e+00  4.00478458e+00  2.99693418e+00
 1.00048780e+00  4.00487852e+00  3.99577260e+00
 0.00000000e+00  4.00460339e+00  3.99622512e+00
 0.00000000e+00  5.00491047e+00  2.99727249e+00
 1.00055718e+00  5.00565624e+00  3.99671125e+00
 0.00000000e+00  5.00531578e+00  3.99623084e+00
 2.00054312e+00  4.00469542e+00  2.99849868e+00
 2.00152397e+00  4.00541830e+00  3.99491334e+00
 2.00200486e+00  5.00555897e+00  3.99597955e+00
 0.00000000e+00  6.00526333e+00  2.99661040e+00
 1.00093675e+00  6.00741005e+00  3.99360919e+00
 0.00000000e+00  6.00716305e+00  3.99481869e+00
 2.00263000e+00  6.00877857e+00  3.99255371e+00
 3.00490856e+00  5.00496912e+00  3.98777533e+00
 3.00662279e+00  6.00731707e+00  3.98894620e+00
 0.00000000e+00  0.00000000e+00  4.98750734e+00
 1.00228155e+00  0.00000000e+00  4.98733139e+00
 1.00244391e+00  1.00107658e+00  4.98765993e+00
 0.00000000e+00  1.00098503e+00  4.98776293e+00
 2.00415111e+00  0.00000000e+00  4.98702002e+00
 2.00442314e+00  1.00134313e+00  4.98712969e+00
 3.00550842e+00  0.00000000e+00  4.98672485e+00
 3.00567698e+00  1.00151193e+00  4.98638105e+00
 4.00646305e+00  0.00000000e+00  4.98638582e+00
 4.00646734e+00  1.00133801e+00  4.98605680e+00
 5.00725985e+00  0.00000000e+00  4.98631239e+00
 5.00718784e+00  1.00107825e+00  4.98602295e+00
 6.00799894e+00  0.00000000e+00  4.98627806e+00
 6.00803041e+00  1.00106061e+00  4.98613596e+00
 1.00298429e+00  2.00257373e+00  4.98758459e+00
 0.00000000e+00  2.00216007e+00  4.98847246e+00
 2.00514078e+00  2.00285077e+00  4.98643208e+00
 3.00625181e+00  2.00268674e+00  4.98562813e+00
 4.00668144e+00  2.00229716e+00  4.98480701e+00
 5.00715446e+00  2.00187469e+00  4.98453283e+00
 6.00762367e+00  2.00185061e+00  4.98472548e+00
 1.00332308e+00  3.00321341e+00  4.99093866e+00
 0.00000000e+00  3.00383258e+00  4.99180222e+00
 2.00587583e+00  3.00358391e+00  4.98627996e+00
 3.00700903e+00  3.00316381e+00  4.98435068e+00
 4.00639677e+00  3.00103021e+00  3.98287129e+00
 4.00733662e+00  3.00265670e+00  4.98405933e+00
 1.00264966e+00  4.00373030e+00  4.99446297e+00
 0.00000000e+00  4.00340652e+00  4.99391890e+00
 2.00649238e+00  4.00492144e+00  4.98697948e+00
 1.00304317e+00  5.00689745e+00  4.99096584e+00
 0.00000000e+00  5.00699472e+00  4.99206018e+00
 1.00325000e+00  6.01079702e+00  4.99050570e+00
 0.00000000e+00  6.01050091e+00  4.99031305e+00
 2.00588894e+00  5.00637531e+00  4.98832941e+00
 2.00765276e+00  6.00924873e+00  4.98851681e+00
 3.00756717e+00  5.00505733e+00  4.98499489e+00
 3.00984478e+00  6.00537634e+00  4.98542738e+00
 4.00469398e+00  5.00376558e+00  3.98240089e+00
 4.00719452e+00  6.00368738e+00  3.98293281e+00
 4.00847149e+00  5.00308132e+00  4.98383760e+00
 4.00982809e+00  6.00343370e+00  4.98402643e+00
 5.00871658e+00  5.00220203e+00  3.98400378e+00
 6.00871992e+00  5.00135374e+00  3.98402047e+00
 6.00955105e+00  6.00137281e+00  3.98399711e+00
 5.00951910e+00  6.00221968e+00  3.98403573e+00
 5.00869608e+00  5.00219917e+00  4.98401546e+00
 6.00871229e+00  5.00140095e+00  4.98401690e+00
 6.00953722e+00  6.00137091e+00  4.98400593e+00
 5.00960493e+00  6.00217295e+00  4.98402691e+00
 0.00000000e+00  0.00000000e+00  5.98401880e+00
 1.00249910e+00  0.00000000e+00  5.98401880e+00
 1.00279081e+00  1.00131154e+00  5.98401880e+00
 0.00000000e+00  1.00106061e+00  5.98401880e+00
 2.00449491e+00  0.00000000e+00  5.98401880e+00
 2.00478625e+00  1.00161648e+00  5.98401880e+00
 3.00574398e+00  0.00000000e+00  5.98401880e+00
 3.00599027e+00  1.00171447e+00  5.98401880e+00
 4.00651836e+00  0.00000000e+00  5.98401880e+00
 4.00666761e+00  1.00172913e+00  5.98401880e+00
 5.00731850e+00  0.00000000e+00  5.98401880e+00
 5.00719404e+00  1.00158799e+00  5.98401880e+00
 6.00835562e+00  0.00000000e+00  5.98401880e+00
 6.00785542e+00  1.00175285e+00  5.98401880e+00
 1.00349116e+00  2.00206304e+00  5.98401880e+00
 0.00000000e+00  2.00191450e+00  5.98401880e+00
 2.00571871e+00  2.00278163e+00  5.98401880e+00
 3.00664091e+00  2.00299525e+00  5.98401880e+00
 4.00704145e+00  2.00264502e+00  5.98401880e+00
 5.00715256e+00  2.00225377e+00  5.98401880e+00
 6.00726795e+00  2.00217509e+00  5.98401880e+00
 1.00455260e+00  3.00556684e+00  5.98401880e+00
 0.00000000e+00  3.00610161e+00  5.98401880e+00
 2.00708985e+00  3.00420594e+00  5.98401880e+00
 3.00738525e+00  3.00342298e+00  5.98401880e+00
 4.00736141e+00  3.00275660e+00  5.98401880e+00
 5.00738525e+00  3.00209093e+00  4.98392534e+00
 5.00741434e+00  3.00223947e+00  5.98401880e+00
 6.00743628e+00  3.00178075e+00  4.98395634e+00
 6.00741243e+00  3.00191140e+00  5.98401880e+00
 3.00792074e+00  4.00335312e+00  4.98346472e+00
 3.00811386e+00  4.00351572e+00  5.98401880e+00
 2.00839496e+00  4.00433779e+00  5.98401880e+00
 4.00797653e+00  4.00273228e+00  4.98406839e+00
 4.00790024e+00  4.00280237e+00  5.98401880e+00
 5.00786924e+00  4.00226355e+00  4.98402452e+00
 5.00789309e+00  4.00223494e+00  5.98401880e+00
 6.00791264e+00  4.00158739e+00  4.98399687e+00
 6.00791073e+00  4.00155544e+00  5.98401880e+00
 0.00000000e+00  4.00072145e+00  5.98401880e+00
 1.00766087e+00  4.00196600e+00  5.98401880e+00
 1.00502038e+00  5.00851011e+00  5.98401880e+00
 0.00000000e+00  5.00848770e+00  5.98401880e+00
 5.00864029e+00  5.00219107e+00  5.98401880e+00
 4.00863218e+00  5.00312519e+00  5.98401880e+00
 6.00872087e+00  5.00142670e+00  5.98401880e+00
 1.00541461e+00  6.01130056e+00  5.98401880e+00
 0.00000000e+00  6.01265574e+00  5.98401880e+00
 2.00696778e+00  5.00661612e+00  5.98401880e+00
 2.00958037e+00  6.00847197e+00  5.98401880e+00
 3.00841188e+00  5.00483894e+00  5.98401880e+00
 3.01055288e+00  6.00511551e+00  5.98401880e+00
 4.01001024e+00  6.00318766e+00  5.98401880e+00
 5.00959349e+00  6.00214243e+00  5.98401880e+00
 6.00952768e+00  6.00138712e+00  5.98401880e+00
</DataArray>
</Points>
<PointData Tensors="Stress_Components,Plastic_strain_components" Vevtors="Spatial_displacement,Reaction_force" Scalars="Equivalent_plastic_strain,Stress_Mises,Stress_Max_Principal,Stress_Mid_Principal,Stress_Min_Principal,Stress_Pressure,Stress_Tresca,Stress_Third_Invariant,Plastic_strain_Max_Principal,Plastic_strain_Min_Principal">
<DataArray type="Float32" Name="Stress_Components" NumberOfComponents="9" format="ascii">
1.46019794e+00 -2.87140712e+00 9.63012673e-01 -2.87140712e+00 3.03398270e-01 2.86576248e+00 9.63012673e-01 2.86576248e+00 -2.63677504e+01
9.61630389e-01 -2.66891208e+00 8.67523858e-02 -2.66891208e+00 6.60597369e-01 2.11035113e+00 8.67523858e-02 2.11035113e+00 -2.64382222e+01
-1.06153336e+00 -1.28373471e+00 1.42988841e+00 -1.28373471e+00 9.56623048e-01 -2.08871728e-01 1.42988841e+00 -2.08871728e-01 -3.11085238e+01
-1.19584412e+00 -4.63281786e-01 -2.28845716e+00 -4.63281786e-01 1.77656421e+00 -1.09612019e+00 -2.28845716e+00 -1.09612019e+00 -2.96105227e+01
2.47278972e+00 1.52403478e+00 3.73148596e+00 1.52403478e+00 3.95287322e+00 1.60911548e+00 3.73148596e+00 1.60911548e+00 -2.38372210e+01
6.72105432e-01 -1.89153421e+00 -3.21863079e+00 -1.89153421e+00 3.50003856e+00 3.89258759e+00 -3.21863079e+00 3.89258759e+00 -2.61074881e+01
-1.70814681e+00 3.08409944e+00 3.20933071e+00 3.08409944e+00 -3.54242259e+00 -4.59631771e+00 3.20933071e+00 -4.59631771e+00 -3.08588009e+01
-1.75827173e+00 2.49440551e+00 4.79855584e+00 2.49440551e+00 -4.44914967e-01 4.32184458e-01 4.79855584e+00 4.32184458e-01 -2.74048972e+01
2.24414706e+00 -4.02767379e-02 -4.67492384e+00 -4.02767379e-02 1.59009871e+00 3.82204264e+00 -4.67492384e+00 3.82204264e+00 -2.63870754e+01
-3.79124749e+00 -6.39037728e-01 2.64553910e+00 -6.39037728e-01 -4.06677151e+00 5.82502294e+00 2.64553910e+00 5.82502294e+00 -3.74524555e+01
-9.84205643e+00 3.36504992e+00 -1.25407499e+01 3.36504992e+00 -7.48562125e+00 5.40820249e+00 -1.25407499e+01 5.40820249e+00 -3.86445071e+01
-8.57169628e+00 7.38108373e+00 -8.82180357e+00 7.38108373e+00 -8.63123870e+00 -9.19521272e-01 -8.82180357e+00 -9.19521272e-01 -4.63656616e+01
-4.40388806e-02 -3.32113191e-01 8.13332945e-03 -3.32113191e-01 1.25698116e-01 -2.69104689e-02 8.13332945e-03 -2.69104689e-02 -2.46424533e-01
-6.67259432e-02 -1.00558773e-01 -9.77523923e-02 -1.00558773e-01 2.64652997e-01 -9.28774439e-02 -9.77523923e-02 -9.28774439e-02 -3.62685686e-01
1.31312098e-01 -1.97407138e-02 1.87692285e-01 -1.97407138e-02 -4.67143953e-04 1.03363298e-01 1.87692285e-01 1.03363298e-01 -2.95610562e-01
6.47997111e-03 -2.51304939e-01 -6.77897707e-02 -2.51304939e-01 -2.86896221e-01 -1.29950136e-01 -6.77897707e-02 -1.29950136e-01 1.15649864e-01
1.26315877e-01 1.04959205e-01 1.70184195e-01 1.04959205e-01 1.11122422e-01 1.07233405e-01 1.70184195e-01 1.07233405e-01 -1.21213280e-01
1.18945781e-02 6.20351247e-02 1.04042754e-01 6.20351247e-02 -8.02649483e-02 4.74391840e-02 1.04042754e-01 4.74391840e-02 1.84599087e-01
3.77144553e-02 2.35591568e-02 -1.67842969e-01 2.35591568e-02 3.14389057e-02 -2.65634805e-01 -1.67842969e-01 -2.65634805e-01 4.70800176e-02
-1.96634486e-01 6.64617121e-02 1.74146332e-02 6.64617121e-02 -1.25971094e-01 6.87220991e-02 1.74146332e-02 6.87220991e-02 4.38831210e-01
6.80631295e-01 1.12679432e-03 2.16356957e+00 1.12679432e-03 6.84041888e-01 -1.12211776e+00 2.16356957e+00 -1.12211776e+00 -2.82922173e+01
8.93130958e-01 -2.19025664e-01 2.38749605e+00 -2.19025664e-01 -2.22685188e-01 -1.51531205e-01 2.38749605e+00 -1.51531205e-01 -2.89536419e+01
3.00092794e-01 -1.85043712e+00 2.78064770e+00 -1.85043712e+00 -2.37122336e-02 6.97040673e-01 2.78064770e+00 6.97040673e-01 -2.90238965e+01
-3.47673886e-01 -8.91349465e-02 2.41492525e+00 -8.91349465e-02 1.14456189e+00 -9.32041720e-01 2.41492525e+00 -9.32041720e-01 -2.87137141e+01
2.32074684e+00 -1.19545613e-04 1.26893240e+00 -1.19545613e-04 -3.73291922e+00 -2.04906926e-01 1.26893240e+00 -2.04906926e-01 -3.09568996e+01
2.00433218e+00 6.49569202e-02 -1.14096357e-02 6.49569202e-02 -3.63189405e+00 1.31531467e+00 -1.14096357e-02 1.31531467e+00 -3.12114286e+01
1.08714591e+00 1.44062153e-01 2.54619718e+00 1.44062153e-01 -3.36381929e+00 3.99358844e-01 2.54619718e+00 3.99358844e-01 -3.13692572e+01
1.11915495e+00 2.65802061e-02 2.62950760e+00 2.65802061e-02 -3.45433438e+00 -1.40805098e+00 2.62950760e+00 -1.40805098e+00 -3.14860454e+01
2.28944427e+00 -1.41556081e+00 3.64143753e+00 -1.41556081e+00 -2.51506466e+00 2.41244998e-01 3.64143753e+00 2.41244998e-01 -2.91985641e+01
6.15774323e-01 -2.69858405e+00 1.19134069e+00 -2.69858405e+00 -2.70556614e+00 2.40168236e-01 1.19134069e+00 2.40168236e-01 -3.14451737e+01
1.56974060e+00 3.26649532e-01 -1.45495766e+00 3.26649532e-01 -3.10875732e+00 7.54463430e-01 -1.45495766e+00 7.54463430e-01 -3.13168697e+01
3.48231064e-01 6.12391624e-01 1.38570163e+00 6.12391624e-01 -2.65431329e+00 1.51778013e+00 1.38570163e+00 1.51778013e+00 -3.23164511e+01
3.85633129e+00 -5.53103024e-03 1.41858611e+00 -5.53103024e-03 -4.51904488e+00 1.12529604e+00 1.41858611e+00 1.12529604e+00 -2.95176601e+01
1.45045916e-01 -1.43644417e+00 -1.10576792e+00 -1.43644417e+00 -3.81335372e+00 -1.30538090e+00 -1.10576792e+00 -1.30538090e+00 -3.31090310e+01
1.76029032e+00 -1.24462085e-01 -8.10726613e-01 -1.24462085e-01 -2.38907078e+00 1.69081390e-01 -8.10726613e-01 1.69081390e-01 -3.05035558e+01
5.35362959e-02 -3.77013044e-01 -1.82761548e+00 -3.77013044e-01 -2.52405067e+00 5.41265053e-01 -1.82761548e+00 5.41265053e-01 -3.22519450e+01
4.09217882e+00 -5.80070959e-02 -1.45897397e+00 -5.80070959e-02 -3.93696636e+00 -4.03714560e-01 -1.45897397e+00 -4.03714560e-01 -2.89564104e+01
-9.59266365e-01 6.88923445e-01 -3.39411217e-01 6.88923445e-01 -2.42854600e+00 -3.81276250e-01 -3.39411217e-01 -3.81276250e-01 -3.31325657e+01
2.26444760e+00 7.07776342e-02 -1.63351694e+00 7.07776342e-02 -1.55563144e+00 1.03607200e-01 -1.63351694e+00 1.03607200e-01 -2.88901758e+01
1.50478969e+00 -1.36728769e+00 -2.42307225e+00 -1.36728769e+00 -2.08240950e+00 -8.79593611e-01 -2.42307225e+00 -8.79593611e-01 -2.98458216e+01
2.85054913e+00 8.45923826e-01 7.04922169e-01 8.45923826e-01 -1.40133661e+00 -1.33447874e+00 7.04922169e-01 -1.33447874e+00 -2.81814494e+01
3.70174984e-01 8.35708790e-01 -1.39106981e-01 8.35708790e-01 -1.32772113e+00 2.22647522e-01 -1.39106981e-01 2.22647522e-01 -3.08889866e+01
2.17137172e+00 3.43957365e-01 -3.69934809e+00 3.43957365e-01 -6.67087644e-01 5.40983349e-01 -3.69934809e+00 5.40983349e-01 -2.75354476e+01
5.08063883e-02 -4.48186313e-01 -1.54795912e+00 -4.48186313e-01 -3.03977426e-01 -6.21255126e-01 -1.54795912e+00 -6.21255126e-01 -2.99306850e+01
3.77206957e+00 2.14006728e+00 1.51973784e+00 2.14006728e+00 -2.32213718e+00 -1.88165241e+00 1.51973784e+00 -1.88165241e+00 -2.75424862e+01
2.06516901e+00 9.96352214e-01 3.50068156e-01 9.96352214e-01 -1.13695815e+00 -1.06498812e+00 3.50068156e-01 -1.06498812e+00 -2.86651368e+01
3.01916397e+00 2.25076568e+00 -3.47296381e+00 2.25076568e+00 -1.32538567e+00 2.64306970e-01 -3.47296381e+00 2.64306970e-01 -2.71831427e+01
1.51006071e+00 1.47642627e+00 -7.29322791e-01 1.47642627e+00 -1.06305565e+00 1.15096182e-01 -7.29322791e-01 1.15096182e-01 -2.91037579e+01
-2.91513175e+00 -3.17222002e+00 5.71601528e+00 -3.17222002e+00 -2.34442949e-03 -1.63228050e+00 5.71601528e+00 -1.63228050e+00 -2.88386202e+01
-1.95241486e+00 -1.98106799e+00 3.94190890e+00 -1.98106799e+00 3.81589794e+00 -1.04486920e+00 3.94190890e+00 -1.04486920e+00 -2.65125237e+01
-3.15724947e-01 -9.29039618e-01 4.93797922e+00 -9.29039618e-01 -3.39987431e+00 7.64079809e-01 4.93797922e+00 7.64079809e-01 -3.23820288e+01
5.77358514e-01 -9.06530675e-02 6.17010093e+00 -9.06530675e-02 -3.54000866e+00 -5.93449265e-01 6.17010093e+00 -5.93449265e-01 -3.06830950e+01
-2.20756715e+00 -8.98912289e-01 2.40922503e+00 -8.98912289e-01 -2.43313812e+00 -2.34345393e+00 2.40922503e+00 -2.34345393e+00 -3.52528330e+01
3.78447361e-02 5.76327568e-01 8.28380182e-01 5.76327568e-01 -1.00558519e+00 -2.17403529e+00 8.28380182e-01 -2.17403529e+00 -3.06563919e+01
-6.43228312e+00 -1.33446157e+00 -7.61910429e+00 -1.33446157e+00 -8.54124594e+00 7.73593140e-01 -7.61910429e+00 7.73593140e-01 -4.23202023e+01
-2.35153590e-01 1.03599170e+00 -5.16993659e+00 1.03599170e+00 -3.14118138e-01 -1.40404855e+00 -5.16993659e+00 -1.40404855e+00 -2.86271398e+01
-5.31165940e+00 3.14108193e-01 -1.23120387e+00 3.14108193e-01 -4.40864691e+00 1.64039138e+00 -1.23120387e+00 1.64039138e+00 -4.05713797e+01
-6.42464480e-01 -9.88995993e-01 -8.17179804e+00 -9.88995993e-01 -6.33830563e+00 2.34317596e+00 -8.17179804e+00 2.34317596e+00 -3.26686321e+01
-1.96280026e+00 -5.83789669e-01 -1.00807711e+00 -5.83789669e-01 -2.13453026e+00 4.41746689e-01 -1.00807711e+00 4.41746689e-01 -3.42577324e+01
-2.64485493e+00 4.05761242e-01 -2.09769711e+00 4.05761242e-01 -3.25922847e+00 4.72985372e-01 -2.09769711e+00 4.72985372e-01 -3.66246147e+01
2.64442638e-01 1.17380157e-01 -7.33901143e-01 1.17380157e-01 -1.06761205e+00 4.21624817e-02 -7.33901143e-01 4.21624817e-02 -3.06679029e+01
-1.40765615e+00 7.99849153e-01 -1.04986348e+00 7.99849153e-01 -4.13893104e+00 -2.87137032e+00 -1.04986348e+00 -2.87137032e+00 -3.53900795e+01
-4.95283525e+00 -1.93953973e+00 6.76474816e+00 -1.93953973e+00 -7.95714442e-01 -8.43211481e-01 6.76474816e+00 -8.43211481e-01 -2.99322521e+01
-3.22100148e+00 -3.75404563e-01 6.07089734e+00 -3.75404563e-01 6.38544083e+00 4.20375651e+00 6.07089734e+00 4.20375651e+00 -2.29916539e+01
1.65563607e+00 -9.80423025e-01 5.18883472e+00 -9.80423025e-01 -2.41989652e+00 -3.53579012e+00 5.18883472e+00 -3.53579012e+00 -2.80371710e+01
-1.53818934e-01 1.93436188e+00 7.92220140e+00 1.93436188e+00 -1.15760949e+00 -8.61928248e+00 7.92220140e+00 -8.61928248e+00 -2.33181348e+01
-1.02113053e+01 -2.74518371e+00 7.87300909e+00 -2.74518371e+00 -8.42879915e+00 -6.71476808e+00 7.87300909e+00 -6.71476808e+00 -4.51557207e+01
-8.91993904e-01 -1.33527246e+00 1.06966124e+00 -1.33527246e+00 -5.98333232e+00 -3.67759604e+00 1.06966124e+00 -3.67759604e+00 -3.55144650e+01
-2.28319855e+01 -9.13069248e+00 -1.69964771e+01 -9.13069248e+00 -1.77287636e+01 -1.85604935e+01 -1.69964771e+01 -1.85604935e+01 -2.66143751e+00
8.09702587e+00 -2.36866999e+00 -7.61592976e+00 -2.36866999e+00 2.84650421e+00 -5.80793452e+00 -7.61592976e+00 -5.80793452e+00 -1.34366833e+01
-3.05659520e+00 -9.10254768e-01 3.85898612e+00 -9.10254768e-01 3.67059653e+00 5.47018284e+00 3.85898612e+00 5.47018284e+00 -2.50559935e+01
-1.55420068e+00 -1.71606025e+00 7.24512982e+00 -1.71606025e+00 3.69832782e+00 3.69400203e+00 7.24512982e+00 3.69400203e+00 -2.09049587e+01
1.47523602e+00 2.78371414e-01 7.74442987e+00 2.78371414e-01 1.60685865e+00 1.97393407e+00 7.74442987e+00 1.97393407e+00 -2.09794097e+01
2.96636117e+00 1.46656054e+00 8.61919984e-01 1.46656054e+00 7.83098710e+00 -2.39509532e+00 8.61919984e-01 -2.39509532e+00 -1.84250510e+01
1.73374777e+00 2.72174644e+00 1.30459267e+00 2.72174644e+00 2.58476720e+00 -1.41703030e+00 1.30459267e+00 -1.41703030e+00 -2.33158684e+01
-3.13552959e+00 2.07142633e+00 -9.96225221e-01 2.07142633e+00 -8.20456220e-01 3.01613082e+00 -9.96225221e-01 3.01613082e+00 -2.60103957e+01
-1.36515206e+00 1.68723433e+00 9.97706234e-01 1.68723433e+00 5.41120446e+00 2.38482442e+00 9.97706234e-01 2.38482442e+00 -2.40692687e+01
-9.85399306e+00 -3.94596040e-01 -1.15701056e+00 -3.94596040e-01 -1.38685650e+00 8.76782662e+00 -1.15701056e+00 8.76782662e+00 -2.47644877e+01
-9.48397374e+00 -1.81288600e-01 9.79042149e+00 -1.81288600e-01 -1.45756631e+01 5.57361400e+00 9.79042149e+00 5.57361400e+00 -5.10979538e+01
-6.36936874e+00 9.34328550e-01 -3.74883022e+00 9.34328550e-01 -6.54468555e+00 -2.56939454e+00 -3.74883022e+00 -2.56939454e+00 -3.71091064e+01
-3.75253463e+00 -4.13868308e-01 3.26470470e+00 -4.13868308e-01 2.10370374e+00 3.90807760e+00 3.26470470e+00 3.90807760e+00 -2.89622087e+01
-2.59616226e-02 3.52845243e+00 -7.24233896e-01 3.52845243e+00 2.73233712e+00 9.85388722e-01 -7.24233896e-01 9.85388722e-01 -2.84397869e+01
-4.84923077e+00 7.07415730e-01 4.16709340e+00 7.07415730e-01 1.98928374e+00 -5.33081591e+00 4.16709340e+00 -5.33081591e+00 -3.14064312e+01
-3.87283824e+00 1.19339564e+00 -4.27979499e+00 1.19339564e+00 -2.98563578e+00 3.77103457e+00 -4.27979499e+00 3.77103457e+00 -3.49804382e+01
-7.32700585e+00 1.37785653e+00 3.27642218e+00 1.37785653e+00 -3.02528326e+00 -8.63599968e+00 3.27642218e+00 -8.63599968e+00 -4.10143642e+01
-7.20368405e-01 -1.38627615e+00 -7.05965797e-01 -1.38627615e+00 -2.24346383e+00 -2.00787449e+00 -7.05965797e-01 -2.00787449e+00 -3.36730264e+01
2.16558909e+00 1.93150295e-03 8.66482109e-01 1.93150295e-03 -6.88240600e+00 -6.15568072e-01 8.66482109e-01 -6.15568072e-01 -3.37422256e+01
1.45737222e+00 5.56018636e-01 1.40044418e+00 5.56018636e-01 -5.71403360e+00 5.29102381e-01 1.40044418e+00 5.29102381e-01 -3.36224689e+01
1.14540210e+00 1.79879436e+00 1.15158593e+00 1.79879436e+00 -5.25749174e+00 9.07739840e-01 1.15158593e+00 9.07739840e-01 -3.34673297e+01
2.07847187e+00 2.74645641e-01 1.80220649e+00 2.74645641e-01 -7.01315296e+00 -1.32668985e-01 1.80220649e+00 -1.32668985e-01 -3.39126644e+01
-4.05603684e-01 1.05225685e+00 6.90059841e-01 1.05225685e+00 -2.64630371e+00 1.17644642e+00 6.90059841e-01 1.17644642e+00 -3.30442400e+01
-4.25676066e-01 2.65925120e+00 2.84450784e-01 2.65925120e+00 -1.95385469e+00 3.49191848e-01 2.84450784e-01 3.49191848e-01 -3.17914288e+01
-2.02203588e+00 7.42704079e-01 -1.23284072e+00 7.42704079e-01 7.27239355e-01 5.66219036e-01 -1.23284072e+00 5.66219036e-01 -3.11960344e+01
-1.52302540e+00 1.63879139e+00 -5.45779262e-01 1.63879139e+00 1.09968843e+00 2.68548909e-01 -5.45779262e-01 2.68548909e-01 -2.99439588e+01
-1.88777143e+00 6.20497987e-02 -1.22891068e+00 6.20497987e-02 2.46619719e+00 -8.83293729e-02 -1.22891068e+00 -8.83293729e-02 -2.91108608e+01
-1.57887209e+00 -4.55327712e-01 -1.30218595e+00 -4.55327712e-01 2.43800588e+00 4.22382938e-01 -1.30218595e+00 4.22382938e-01 -2.85336516e+01
-7.32334241e-01 -4.06519972e-01 -1.39156261e+00 -4.06519972e-01 2.55745381e+00 4.24725277e-01 -1.39156261e+00 4.24725277e-01 -2.78698549e+01
-5.35845693e-01 -1.17010386e+00 -2.18065175e+00 -1.17010386e+00 1.38864811e+00 1.83346225e-01 -2.18065175e+00 1.83346225e-01 -2.83554564e+01
-6.07472371e-01 2.79496044e-01 -8.36021841e-01 2.79496044e-01 3.03053808e+00 1.48418343e+00 -8.36021841e-01 1.48418343e+00 -2.73052807e+01
-1.82123108e-01 -1.42121062e+00 -7.46795297e-01 -1.42121062e+00 6.53773069e-01 -5.03099188e-02 -7.46795297e-01 -5.03099188e-02 -2.91212888e+01
1.54193390e+00 2.11778669e+00 3.67556487e+00 2.11778669e+00 -6.57816491e+00 -3.22711453e-01 3.67556487e+00 -3.22711453e-01 -3.26650364e+01
7.07386956e-01 1.18801749e+00 4.42109081e+00 1.18801749e+00 -7.78568017e+00 -2.36549798e+00 4.42109081e+00 -2.36549798e+00 -3.47431989e+01
1.91394237e+00 2.68034393e+00 -8.23977944e-01 2.68034393e+00 -1.52102939e+00 2.08401531e-01 -8.23977944e-01 2.08401531e-01 -2.89817083e+01
1.81950434e+00 2.42048819e+00 -2.94092153e+00 2.42048819e+00 2.62098575e+00 2.17430189e-01 -2.94092153e+00 2.17430189e-01 -2.33711827e+01
1.74974618e+00 6.25716891e-01 -3.81768693e+00 6.25716891e-01 4.74819602e+00 -6.44913884e-01 -3.81768693e+00 -6.44913884e-01 -2.34815260e+01
1.27466746e+00 -8.98283670e-01 -7.23347835e+00 -8.98283670e-01 1.73993321e+00 -6.97029357e-01 -7.23347835e+00 -6.97029357e-01 -2.53343137e+01
8.10561577e-01 -3.18427030e+00 -7.28268639e+00 -3.18427030e+00 -9.57256556e-01 -3.13505689e+00 -7.28268639e+00 -3.13505689e+00 -2.63359814e+01
2.02858822e+00 -7.05667257e-01 8.93526514e+00 -7.05667257e-01 -1.00779745e+01 -1.91328279e+00 8.93526514e+00 -1.91328279e+00 -2.95505349e+01
-2.09870326e-01 -1.70089738e+00 8.71269719e+00 -1.70089738e+00 -1.19345765e+01 -2.05038973e+00 8.71269719e+00 -2.05038973e+00 -3.57614816e+01
3.55682834e+00 2.42386164e+00 1.37731302e+00 2.42386164e+00 -1.81480355e+00 -4.34352730e+00 1.37731302e+00 -4.34352730e+00 -2.66887077e+01
5.98432699e+00 3.69250838e+00 -8.37697538e+00 3.69250838e+00 1.04534025e+00 -3.79575199e+00 -8.37697538e+00 -3.79575199e+00 -1.70103457e+01
-7.45840693e+00 -1.11242342e+01 -1.51963148e+01 -1.11242342e+01 -1.95354099e+01 -1.59924011e+01 -1.51963148e+01 -1.59924011e+01 6.02593994e+00
5.28814427e+00 1.65268815e+00 -4.42257038e+00 1.65268815e+00 4.62698247e+00 -1.59019012e+00 -4.42257038e+00 -1.59019012e+00 -4.42403258e+00
-1.02406949e-01 1.31841794e+00 -9.13458467e-01 1.31841794e+00 -7.58035471e+00 2.22851503e+00 -9.13458467e-01 2.22851503e+00 -2.65233784e+01
2.08318166e+00 1.35420765e+00 -3.40159202e+00 1.35420765e+00 -2.53434213e+00 1.65379562e+00 -3.40159202e+00 1.65379562e+00 -2.67138379e+01
-4.40692377e+00 -1.82123184e-01 6.50073044e-01 -1.82123184e-01 -8.82383466e+00 -4.77294207e+00 6.50073044e-01 -4.77294207e+00 -4.94478970e+01
-3.35052476e+00 -1.56661570e-01 -1.82879170e-02 -1.56661570e-01 -8.35765858e-01 1.18664239e+00 -1.82879170e-02 1.18664239e+00 -3.49049088e+01
-1.91831684e+00 -4.07263219e-01 -7.34341685e-02 -4.07263219e-01 2.90341794e-01 -1.82330433e+00 -7.34341685e-02 -1.82330433e+00 -3.22334042e+01
-1.89367430e+00 -8.75270858e-01 3.10727271e+00 -8.75270858e-01 -1.69998756e+00 2.65741999e+00 3.10727271e+00 2.65741999e+00 -3.24363627e+01
-9.52760577e-01 4.09380630e-01 1.89225811e+00 4.09380630e-01 -3.35642338e-01 5.47961757e-01 1.89225811e+00 5.47961757e-01 -3.15526228e+01
-5.05408102e+00 1.76901123e+00 1.10321206e+00 1.76901123e+00 -1.68036741e+00 -1.52227853e+00 1.10321206e+00 -1.52227853e+00 -3.77343521e+01
-1.02573636e+00 -2.14090303e+00 -3.79859209e-02 -2.14090303e+00 -1.30809100e+00 2.12663043e+00 -3.79859209e-02 2.12663043e+00 -3.21582475e+01
9.16217196e+00 2.78511310e+00 1.73995885e+00 2.78511310e+00 6.26301408e-01 -2.75595546e+00 1.73995885e+00 -2.75595546e+00 -2.04251020e+01
3.96173210e+00 -1.10793871e+00 -1.69621888e+00 -1.10793871e+00 1.62716533e+00 -3.33881561e+00 -1.69621888e+00 -3.33881561e+00 -2.36258488e+01
-6.04902172e+00 1.13321505e+01 9.09233928e-01 1.13321505e+01 4.35511827e+00 -2.20874596e+01 9.09233928e-01 -2.20874596e+01 1.77073498e+01
1.87790024e+00 -6.95513344e+00 2.34178305e+00 -6.95513344e+00 -6.00145006e+00 -2.32558231e+01 2.34178305e+00 -2.32558231e+01 7.98199028e-02
4.64491384e+00 -2.60390782e+00 3.76855552e-01 -2.60390782e+00 -4.40640926e-01 6.09634244e+00 3.76855552e-01 6.09634244e+00 -2.15170217e+00
-5.34507491e+00 -5.82800007e+00 -2.25717833e+00 -5.82800007e+00 8.90371041e+00 6.48916483e-01 -2.25717833e+00 6.48916483e-01 -2.70701567e-01
-4.84426856e-01 -9.53511596e-01 5.99075913e-01 -9.53511596e-01 1.12721205e-01 -8.58220235e-02 5.99075913e-01 -8.58220235e-02 -1.46381840e-01
-2.92978466e-01 -3.60178709e-01 4.99745131e-01 -3.60178709e-01 3.63532245e-01 1.83368593e-01 4.99745131e-01 1.83368593e-01 -5.88646770e-01
3.26331347e-01 -3.30471367e-01 -5.21167099e-01 -3.30471367e-01 -2.03901872e-01 -1.09022939e+00 -5.21167099e-01 -1.09022939e+00 -6.40504301e-01
5.96017241e-01 -9.23914313e-01 -3.06355596e-01 -9.23914313e-01 6.36343937e-03 9.84109879e-01 -3.06355596e-01 9.84109879e-01 -1.12046385e+00
3.94709985e+00 9.25776076e-01 -8.31834868e-02 9.25776076e-01 -1.92334981e+00 4.85950828e-01 -8.31834868e-02 4.85950828e-01 -1.19236410e-02
5.90170075e-01 3.89929270e-01 6.71066274e-01 3.89929270e-01 -3.50909042e+00 9.63214487e-02 6.71066274e-01 9.63214487e-02 -1.01579433e-01
-2.27980942e+00 4.84379202e-01 -7.98900425e-02 4.84379202e-01 -7.08175905e-01 -6.70411706e-01 -7.98900425e-02 -6.70411706e-01 9.79835540e-01
-3.04161553e+00 -9.48467890e-01 -5.18360962e-01 -9.48467890e-01 8.62291162e-01 1.49000774e-01 -5.18360962e-01 1.49000774e-01 1.57556606e+00
1.88161981e+00 5.49566746e-03 -7.95751810e-04 5.49566746e-03 -7.70298624e+00 2.44791619e-04 -7.95751810e-04 2.44791619e-04 -3.48725357e+01
7.34166175e-01 1.07307810e+00 3.27587686e-03 1.07307810e+00 -5.75973916e+00 6.84264153e-01 3.27587686e-03 6.84264153e-01 -3.46913605e+01
1.51173031e+00 2.48286611e+00 7.46026009e-01 2.48286611e+00 -6.89418614e+00 1.10314223e+00 7.46026009e-01 1.10314223e+00 -3.41501012e+01
2.28848398e+00 8.23784977e-01 1.40630461e-01 8.23784977e-01 -8.73096108e+00 2.33481405e-03 1.40630461e-01 2.33481405e-03 -3.50849075e+01
-1.54921471e+00 1.05350226e+00 2.99340184e-03 1.05350226e+00 -1.76437235e+00 1.27739167e+00 2.99340184e-03 1.27739167e+00 -3.33219891e+01
-5.88559821e-01 2.83662957e+00 9.92024988e-01 2.83662957e+00 -2.08100347e+00 1.22547176e+00 9.92024988e-01 1.22547176e+00 -3.20154982e+01
-3.48513150e+00 1.00227425e+00 -4.75836731e-03 1.00227425e+00 1.87681162e+00 9.34903979e-01 -4.75836731e-03 9.34903979e-01 -3.11111288e+01
-2.26884361e+00 2.18714118e+00 8.45995963e-01 2.18714118e+00 2.32223496e+00 1.33233055e+00 8.45995963e-01 1.33233055e+00 -2.90196929e+01