<VTKFile type="UnstructuredGrid" version="0.1" byte_order="LittleEndian">
<UnstructuredGrid>
<Piece NumberOfPoints="173" NumberOfCells="80">
<Points>
<DataArray type="Float64" NumberOfComponents="3" format="ascii">
 0.00000000e+00  0.00000000e+00  0.00000000e+00
 1.01467073e+00  0.00000000e+00  0.00000000e+00
 1.01622844e+00  1.03379393e+00  0.00000000e+00
 0.00000000e+00  1.03199792e+00  0.00000000e+00
 0.00000000e+00  0.00000000e+00  9.61164057e-01
 1.01491952e+00  0.00000000e+00  9.59345341e-01
 1.01518619e+00  1.03089273e+00  9.61508095e-01
 0.00000000e+00  1.03041041e+00  9.63717997e-01
 2.03236055e+00  0.00000000e+00  0.00000000e+00
 2.03298020e+00  1.03765965e+00  0.00000000e+00
 2.03195548e+00  0.00000000e+00  9.54110384e-01
 2.03311300e+00  1.03311646e+00  9.57499266e-01
 3.05154252e+00  0.00000000e+00  0.00000000e+00
 3.05316830e+00  1.04308105e+00  0.00000000e+00
 3.05464959e+00  0.00000000e+00  9.48683202e-01
 3.05244136e+00  1.03573620e+00  9.51690078e-01
 4.07819462e+00  0.00000000e+00  0.00000000e+00
 4.07305431e+00  1.04754388e+00  0.00000000e+00
 4.08091068e+00  0.00000000e+00  9.43418205e-01
 4.07536077e+00  1.03672731e+00  9.46352839e-01
 5.10827494e+00  0.00000000e+00  0.00000000e+00
 5.09911919e+00  1.05158067e+00  0.00000000e+00
 5.11016512e+00  0.00000000e+00  9.35809851e-01
 5.10408688e+00  1.03864586e+00  9.41620409e-01
 6.14240313e+00  0.00000000e+00  0.00000000e+00
 6.12083578e+00  1.06700349e+00  0.00000000e+00
 6.13845110e+00  0.00000000e+00  9.32450533e-01
 6.13343334e+00  1.05033457e+00  9.33421552e-01
 1.01847279e+00  2.05842543e+00  0.00000000e+00
 0.00000000e+00  2.05701733e+00  0.00000000e+00
 1.01645982e+00  2.05663919e+00  9.68377352e-01
 0.00000000e+00  2.05490565e+00  9.68970597e-01
 2.03679323e+00  2.06480765e+00  0.00000000e+00
 2.03348160e+00  2.06036544e+00  9.68638539e-01
 3.05138779e+00  2.07076740e+00  0.00000000e+00
 3.04903889e+00  2.06488013e+00  9.73353267e-01
 4.06405926e+00  2.07970405e+00  0.00000000e+00
 4.06584406e+00  2.06724644e+00  9.71584678e-01
 5.07294703e+00  2.08359599e+00  0.00000000e+00
 5.08020306e+00  2.07087064e+00  9.73140359e-01
 6.08648157e+00  2.10082746e+00  0.00000000e+00
 6.09938145e+00  2.08802724e+00  9.72437501e-01
 1.02008212e+00  3.07251954e+00  0.00000000e+00
 0.00000000e+00  3.07102203e+00  0.00000000e+00
 1.01755893e+00  3.07280779e+00  9.76069570e-01
 0.00000000e+00  3.07201529e+00  9.75020766e-01
 2.03825879e+00  3.07438707e+00  0.00000000e+00
 2.03446269e+00  3.07476974e+00  9.83074784e-01
 3.04853344e+00  3.07953930e+00  0.00000000e+00
 3.04590011e+00  3.07746339e+00  9.94038761e-01
 4.05039740e+00  3.08494711e+00  0.00000000e+00
 4.04820204e+00  3.07856011e+00  1.00151765e+00
 5.05772924e+00  3.08331013e+00  0.00000000e+00
 5.05765629e+00  3.07700062e+00  1.00475156e+00
 6.05933523e+00  3.10193729e+00  0.00000000e+00
 6.06087494e+00  3.09929991e+00  1.00219953e+00
 1.02048540e+00  4.07926321e+00  0.00000000e+00
 0.00000000e+00  4.08044577e+00  0.00000000e+00
 1.01764989e+00  4.08061838e+00  9.79526699e-01
 0.00000000e+00  4.08197355e+00  9.77876246e-01
 2.03707123e+00  4.07898188e+00  0.00000000e+00
 2.03319025e+00  4.07797956e+00  9.86854911e-01
 3.04442120e+00  4.07980394e+00  0.00000000e+00
 3.04119158e+00  4.07870579e+00  9.97145176e-01
 4.04339981e+00  4.08351421e+00  0.00000000e+00
 4.04317522e+00  4.08343124e+00  9.99976814e-01
 6.04365396e+00  4.09010124e+00  0.00000000e+00
 5.04357433e+00  4.08641911e+00  0.00000000e+00
 6.04373884e+00  4.09020758e+00  9.99887884e-01
 5.04361582e+00  4.08648062e+00  1.00007761e+00
 1.01924288e+00  5.08660555e+00  0.00000000e+00
 0.00000000e+00  5.08961201e+00  0.00000000e+00
 1.01730072e+00  5.08867502e+00  9.78379071e-01
 0.00000000e+00  5.08991051e+00  9.74818051e-01
 2.03516197e+00  5.08156300e+00  0.00000000e+00
 2.02969432e+00  5.08273458e+00  9.85811055e-01
 3.04014373e+00  5.08059311e+00  0.00000000e+00
 3.03813338e+00  5.08071232e+00  9.97721910e-01
 4.04041767e+00  5.08345032e+00  0.00000000e+00
 4.04023790e+00  5.08341789e+00  1.00021839e+00
 5.04028654e+00  5.08656979e+00  0.00000000e+00
 5.04036570e+00  5.08657026e+00  1.00000775e+00
 6.04032946e+00  5.08981848e+00  0.00000000e+00
 6.04035902e+00  5.08976555e+00  9.99968588e-01
 1.02140987e+00  6.09868956e+00  0.00000000e+00
 0.00000000e+00  6.10065079e+00  0.00000000e+00
 1.01853943e+00  6.09831047e+00  9.74486649e-01
 0.00000000e+00  6.10246038e+00  9.70839500e-01
 2.03783035e+00  6.08890581e+00  0.00000000e+00
 2.02998662e+00  6.09463930e+00  9.79500473e-01
 3.03938365e+00  6.08217478e+00  0.00000000e+00
 3.03832388e+00  6.08653164e+00  9.94223535e-01
 4.03781796e+00  6.08364439e+00  0.00000000e+00
 4.03747416e+00  6.08367682e+00  1.00026798e+00
 5.03724766e+00  6.08651352e+00  0.00000000e+00
 5.03731108e+00  6.08655691e+00  1.00000727e+00
 6.03720140e+00  6.08975267e+00  0.00000000e+00
 6.03722572e+00  6.08971739e+00  1.00000978e+00
 0.00000000e+00  0.00000000e+00  1.92605066e+00
 1.01656485e+00  0.00000000e+00  1.92191541e+00
 1.01569653e+00  1.02525425e+00  1.92617440e+00
 0.00000000e+00  1.02596593e+00  1.92753041e+00
 2.03714585e+00  0.00000000e+00  1.91614401e+00
 2.03263235e+00  1.02171016e+00  1.91707397e+00
 3.05841637e+00  0.00000000e+00  1.90660131e+00
 3.05866718e+00  1.02080762e+00  1.90705383e+00
 4.08751345e+00  0.00000000e+00  1.89338231e+00
 4.08499241e+00  1.02168369e+00  1.90307283e+00
 5.11654472e+00  0.00000000e+00  1.88338566e+00
 5.11402178e+00  1.02293992e+00  1.89438796e+00
 6.13960361e+00  0.00000000e+00  1.87687421e+00
 6.14572239e+00  1.02420580e+00  1.88646793e+00
 1.01205027e+00  2.04994416e+00  1.93581533e+00
 0.00000000e+00  2.05257678e+00  1.94005919e+00
 2.02966452e+00  2.04902983e+00  1.93278778e+00
 3.05186296e+00  2.05236888e+00  1.93064511e+00
 4.08063936e+00  2.05905437e+00  1.91808510e+00
 5.11229086e+00  2.06027055e+00  1.91925561e+00
 6.14285040e+00  2.06252241e+00  1.90954363e+00
 1.01000679e+00  3.07161236e+00  1.95010674e+00
 0.00000000e+00  3.07222748e+00  1.95368934e+00
 2.02440929e+00  3.07210612e+00  1.96003342e+00
 3.02200747e+00  3.06878543e+00  2.00347853e+00
 1.01170886e+00  4.08661032e+00  1.96171939e+00
 0.00000000e+00  4.08510971e+00  1.95734215e+00
 2.02433658e+00  4.08146763e+00  1.97460020e+00
 3.03058100e+00  4.07103729e+00  1.99049580e+00
 1.01282787e+00  5.09256935e+00  1.95924020e+00
 0.00000000e+00  5.09475470e+00  1.95581031e+00
 2.02285409e+00  5.08902931e+00  1.97014880e+00
 3.04082131e+00  5.08293104e+00  1.97586977e+00
 1.00983357e+00  6.10687828e+00  1.94743586e+00
 0.00000000e+00  6.10466337e+00  1.94777381e+00
 2.02246022e+00  6.11038399e+00  1.95422053e+00
 3.04439688e+00  6.10778713e+00  1.95468450e+00
 5.04040527e+00  5.08657026e+00  2.00001335e+00
 6.04041004e+00  5.08969402e+00  1.99998105e+00
 6.03727150e+00  6.08970594e+00  2.00000358e+00
 5.03725338e+00  6.08657598e+00  2.00001359e+00
 0.00000000e+00  0.00000000e+00  2.88814640e+00
 1.02107096e+00  0.00000000e+00  2.88666034e+00
 1.02143538e+00  1.02247298e+00  2.89138651e+00
 0.00000000e+00  1.02199709e+00  2.89469624e+00
 2.04636908e+00  0.00000000e+00  2.87810707e+00
 2.04076481e+00  1.01770687e+00  2.88486910e+00
 3.06903696e+00  0.00000000e+00  2.86915278e+00
 3.06939745e+00  1.01414788e+00  2.87162733e+00
 4.09642029e+00  0.00000000e+00  2.86072230e+00
 4.09740925e+00  1.01511562e+00  2.85743260e+00
 5.12289715e+00  0.00000000e+00  2.84930134e+00
 5.12426805e+00  1.01675832e+00  2.85146713e+00
 6.14580202e+00  0.00000000e+00  2.84436345e+00
 6.14778709e+00  1.01522076e+00  2.84708428e+00
 1.01389718e+00  2.04154515e+00  2.90460324e+00
 0.00000000e+00  2.04822445e+00  2.90650344e+00
 2.03798366e+00  2.04074669e+00  2.88847756e+00
 3.06380272e+00  2.04501104e+00  2.86383247e+00
 4.09760427e+00  2.05064201e+00  2.85964131e+00
 5.12664270e+00  2.04509377e+00  2.85808182e+00
 6.15108633e+00  2.04238224e+00  2.85531020e+00
 1.00987232e+00  3.07216024e+00  2.92898583e+00
 0.00000000e+00  3.07066417e+00  2.92449498e+00
 2.03374338e+00  3.06375360e+00  2.90860224e+00
 1.00913715e+00  4.08774519e+00  2.94180131e+00
 0.00000000e+00  4.09127998e+00  2.94055581e+00
 2.02497578e+00  4.08776712e+00  2.95942521e+00
 1.01035714e+00  5.10560703e+00  2.93882418e+00
 0.00000000e+00  5.10216951e+00  2.93868780e+00
 2.02514076e+00  5.10626554e+00  2.94002771e+00
 3.02959943e+00  4.09926033e+00  3.00759220e+00
 3.04461265e+00  5.10054111e+00  2.93285418e+00
 1.01084304e+00  6.11897707e+00  2.92779613e+00
 0.00000000e+00  6.11961746e+00  2.92120838e+00
</DataArray>
</Points>
<PointData Tensors="Stress_Components,Plastic_strain_components" Vevtors="Spatial_displacement,Reaction_force" Scalars="Equivalent_plastic_strain,Stress_Mises,Stress_Max_Principal,Stress_Mid_Principal,Stress_Min_Principal,Stress_Pressure,Stress_Tresca,Stress_Third_Invariant,Plastic_strain_Max_Principal,Plastic_strain_Min_Principal">
<DataArray type="Float32" Name="Stress_Components" NumberOfComponents="9" format="ascii">
-3.75758266e+00 -9.81722958e-04 -6.13098405e-03 -9.81722958e-04 2.01224852e+00 -9.80801880e-04 -6.13098405e-03 -9.80801880e-04 -3.13295937e+01
-5.60625890e+00 2.76804559e-01 -1.22218911e-03 2.76804559e-01 4.62385654e-01 -1.06024362e-01 -1.22218911e-03 -1.06024362e-01 -3.49818516e+01
-3.76659983e+00 7.08398469e-01 -5.28698742e-01 7.08398469e-01 5.04081495e-01 -3.04612603e-01 -5.28698742e-01 -3.04612603e-01 -3.31597450e+01
-1.93576503e+00 2.65709236e-01 -3.23044166e-01 2.65709236e-01 2.05198836e+00 8.09927378e-03 -3.23044166e-01 8.09927378e-03 -2.95803823e+01
-2.41554296e+00 -1.26430346e-03 2.93909937e-01 -1.26430346e-03 2.96295655e+00 -3.72681662e-01 2.93909937e-01 -3.72681662e-01 -2.88925428e+01
-4.18080091e+00 9.53434352e-02 4.73614343e-01 9.53434352e-02 1.24712732e+00 -5.12390740e-01 4.73614343e-01 -5.12390740e-01 -3.26737885e+01
-2.49660251e+00 3.90964761e-01 -1.16945343e-02 3.90964761e-01 1.59785306e+00 -6.09665055e-01 -1.16945343e-02 -6.09665055e-01 -3.06366687e+01
-2.92671204e+00 1.14005391e-01 3.95249869e-02 1.14005391e-01 1.26963126e+00 -2.03860536e-01 3.95249869e-02 -2.03860536e-01 -3.14674864e+01
-9.19883621e+00 2.84137889e-02 -1.22587276e-02 2.84137889e-02 -2.54552317e+00 -3.78523290e-01 -1.22587276e-02 -3.78523290e-01 -4.20959063e+01
-8.84401250e+00 1.27513705e+00 -7.50530794e-01 1.27513705e+00 -3.43380839e+00 -1.36458330e-01 -7.50530794e-01 -1.36458330e-01 -4.27649488e+01
-4.21011116e+00 2.23818745e-01 4.49582815e-01 2.23818745e-01 2.89117634e-01 -3.93719701e-01 4.49582815e-01 -3.93719701e-01 -3.39335027e+01
-6.30264369e+00 5.17955380e-01 -3.92729446e-01 5.17955380e-01 -1.88622963e+00 -1.24160518e+00 -3.92729446e-01 -1.24160518e+00 -3.84595492e+01
-1.36284370e+01 6.41879439e-01 -4.89389654e-02 6.41879439e-01 -6.48138255e+00 5.41950181e-01 -4.89389654e-02 5.41950181e-01 -5.11323948e+01
-1.38672814e+01 8.51958528e-01 -1.41824695e+00 8.51958528e-01 -7.59068394e+00 -8.19790736e-01 -1.41824695e+00 -8.19790736e-01 -5.27182691e+01
-5.46851549e+00 -4.88176070e-01 -3.79382158e-02 -4.88176070e-01 -2.17369551e+00 -4.74979706e-01 -3.79382158e-02 -4.74979706e-01 -3.81698520e+01
-9.26432243e+00 -3.61504696e-01 3.06626551e-01 -3.61504696e-01 -4.44215700e+00 -7.88796961e-01 3.06626551e-01 -7.88796961e-01 -4.43012799e+01
-1.48473768e+01 -1.05873764e+00 -4.01309263e-02 -1.05873764e+00 -8.42698982e+00 3.04411627e-01 -4.01309263e-02 3.04411627e-01 -5.47097492e+01
-1.98107605e+01 -1.02807504e+00 -2.56803772e+00 -1.02807504e+00 -1.05069492e+01 3.78698166e-02 -2.56803772e+00 3.78698166e-02 -6.17982635e+01
-7.83320212e+00 -1.27193545e+00 3.96010879e-01 -1.27193545e+00 -5.06840396e+00 -2.71935955e-01 3.96010879e-01 -2.71935955e-01 -4.38612667e+01
-3.71991049e+00 -1.30447031e+00 2.87012976e-01 -1.30447031e+00 -1.28609735e+00 2.23235346e-01 2.87012976e-01 2.23235346e-01 -3.52002575e+01
-1.71090444e+01 -1.15505239e+00 -9.56829004e-02 -1.15505239e+00 -9.26401538e+00 7.59607881e-01 -9.56829004e-02 7.59607881e-01 -5.78414564e+01
-1.44654500e+01 -3.23381522e+00 -2.74313536e+00 -3.23381522e+00 -7.02031291e+00 1.05541842e+00 -2.74313536e+00 1.05541842e+00 -5.16915936e+01
-4.96650720e+00 -8.63119393e-01 6.95134822e-01 -8.63119393e-01 -2.15573049e+00 6.85582049e-01 6.95134822e-01 6.85582049e-01 -3.75770650e+01
-2.79487482e+00 -2.19955232e+00 8.05398460e-01 -2.19955232e+00 -1.26875767e+00 4.73884422e-01 8.05398460e-01 4.73884422e-01 -3.40162264e+01
-3.98220863e+01 -4.62798786e+00 -9.43427086e-02 -4.62798786e+00 -2.42856350e+01 2.40657851e-01 -9.43427086e-02 2.40657851e-01 -9.70708618e+01
-4.25287380e+01 -4.15513074e+00 -3.89087248e+00 -4.15513074e+00 -2.33852115e+01 4.42637932e+00 -3.89087248e+00 4.42637932e+00 -9.72264099e+01
-1.99736531e+01 -8.38671774e-01 -3.53368700e-01 -8.38671774e-01 -1.10501029e+01 1.06921542e+00 -3.53368700e-01 1.06921542e+00 -6.28418236e+01
-1.97012014e+01 -2.25682968e+00 4.40400153e-01 -2.25682968e+00 -1.30116451e+01 1.98207345e+00 4.40400153e-01 1.98207345e+00 -6.38989444e+01
2.78032660e-01 1.21904652e+00 -4.48213615e-01 1.21904652e+00 -9.05629992e-01 -4.72185124e-01 -4.48213615e-01 -4.72185124e-01 -3.04718550e+01
1.32229495e+00 1.50558252e-01 -7.32274383e-01 1.50558252e-01 4.01614666e-01 2.68390588e-03 -7.32274383e-01 2.68390588e-03 -2.80087128e+01
-7.55076855e-01 8.19633372e-01 5.00582132e-01 8.19633372e-01 1.72551751e-01 -9.61081069e-01 5.00582132e-01 -9.61081069e-01 -3.04924491e+01
2.64225546e+00 4.02471900e-01 9.55966838e-01 4.02471900e-01 3.47663251e+00 -1.52227247e-01 9.55966838e-01 -1.52227247e-01 -2.33320534e+01
6.02416635e-01 2.15127899e+00 -1.35817890e+00 2.15127899e+00 -1.45361137e+00 -1.16735719e+00 -1.35817890e+00 -1.16735719e+00 -3.02525611e+01
-1.45773305e+00 1.23786552e+00 1.69325042e+00 1.23786552e+00 -6.38744161e-01 -4.59972651e-01 1.69325042e+00 -4.59972651e-01 -3.17811827e+01
1.18312947e+01 1.08583597e+00 -1.07549722e+00 1.08583597e+00 1.06406559e+01 -6.37336617e-01 -1.07549722e+00 -6.37336617e-01 -6.17619419e+00
3.51993758e+00 5.11211101e-01 3.61212551e+00 5.11211101e-01 4.44937846e+00 8.38039411e-02 3.61212551e+00 8.38039411e-02 -2.09422744e+01
1.31566511e+01 -2.54493956e+00 -3.57915884e+00 -2.54493956e+00 1.07805967e+01 -1.05975185e-01 -3.57915884e+00 -1.05975185e-01 -3.64466667e+00
-1.93451552e+00 -4.14613469e+00 5.76810117e+00 -4.14613469e+00 -4.34461832e-01 1.05560207e+00 5.76810117e+00 1.05560207e+00 -2.97792206e+01
1.89029014e+01 -1.04868948e+00 -3.52767347e+00 -1.04868948e+00 1.26503107e+01 1.50865154e+00 -3.52767347e+00 1.50865154e+00 5.12294865e+00
2.37802108e-01 -3.74355011e+00 6.95159586e+00 -3.74355011e+00 -2.08354072e+00 3.51108515e+00 6.95159586e+00 3.51108515e+00 -2.69839462e+01
1.17893209e+01 -4.65805507e+00 -4.11708409e+00 -4.65805507e+00 2.64294243e+00 3.18463534e+00 -4.11708409e+00 3.18463534e+00 -1.13545265e+01
-1.47642479e+01 -7.12177046e+00 6.39374558e+00 -7.12177046e+00 -1.28074239e+01 6.24850204e+00 6.39374558e+00 6.24850204e+00 -5.46010793e+01
4.16938007e+00 7.09488004e-01 2.50828631e-01 7.09488004e-01 -2.94322681e+00 -7.46336579e-01 2.50828631e-01 -7.46336579e-01 -2.77100804e+01
3.59723318e+00 4.27465022e-01 4.45601642e-01 4.27465022e-01 -2.17575407e+00 -1.57632018e-02 4.45601642e-01 -1.57632018e-02 -2.78889198e+01
3.23631844e+00 4.78520613e-01 1.38233157e+00 4.78520613e-01 -1.88193038e+00 -4.75183046e-01 1.38233157e+00 -4.75183046e-01 -2.78545057e+01
6.08414432e+00 1.76606581e-01 1.25109011e+00 1.76606581e-01 3.28332531e+00 -1.93040676e-01 1.25109011e+00 -1.93040676e-01 -1.95782290e+01
1.23217878e+01 9.76928225e-01 3.55047226e-01 9.76928225e-01 7.25000183e+00 -1.60295589e+00 3.55047226e-01 -1.60295589e+00 -8.14828277e+00
1.24675574e+01 5.33491567e-01 1.31293588e+00 5.33491567e-01 4.73010069e+00 6.17328899e-01 1.31293588e+00 6.17328899e-01 -1.05307205e+01
2.97671363e+01 4.13395390e-01 -1.17318018e+00 4.13395390e-01 2.44810475e+01 -7.96773036e-01 -1.17318018e+00 -7.96773036e-01 2.73478727e+01
2.64881177e+01 -7.65164378e-01 5.82386409e-01 -7.65164378e-01 2.53504819e+01 1.94809562e+00 5.82386409e-01 1.94809562e+00 2.47949878e+01
3.18498729e+01 9.77285226e-01 -3.71819416e+00 9.77285226e-01 2.70051763e+01 -1.75596685e+00 -3.71819416e+00 -1.75596685e+00 3.98463163e+01
9.81682094e+00 -4.65207195e+00 -1.88913790e+00 -4.65207195e+00 1.62057519e+01 3.56853656e+00 -1.88913790e+00 3.56853656e+00 1.42144920e+01
3.26029415e+01 2.76475533e+00 -1.71918806e+00 2.76475533e+00 3.65370394e+01 -4.10888672e-01 -1.71918806e+00 -4.10888672e-01 4.30792599e+01
1.45834277e+01 1.36345641e+00 -2.57682956e+00 1.36345641e+00 2.06629601e+01 -1.12039399e+00 -2.57682956e+00 -1.12039399e+00 2.24601269e+01
2.77628016e+01 4.77279663e+00 -2.85239196e+00 4.77279663e+00 1.18476572e+01 3.23559523e-01 -2.85239196e+00 3.23559523e-01 3.84929243e+01
4.50430083e+00 -3.07503223e-01 4.16998887e+00 -3.07503223e-01 -4.56920338e+00 -1.76196527e+00 4.16998887e+00 -1.76196527e+00 2.61679006e+00
4.86146645e+00 -6.33601004e-01 3.35986942e-01 -6.33601004e-01 -4.77326456e+00 -1.15259063e+00 3.35986942e-01 -1.15259063e+00 -2.82450361e+01
3.35984063e+00 -5.93618691e-01 6.09615326e-01 -5.93618691e-01 -5.03599215e+00 -2.20229737e-02 6.09615326e-01 -2.20229737e-02 -3.06023245e+01
6.01795706e+00 -1.02113353e+00 1.88211353e+00 -1.02113353e+00 -9.96669203e-01 -7.93208349e-02 1.88211353e+00 -7.93208349e-02 -2.32375308e+01
4.25404679e+00 -8.08781371e-01 6.30736688e-01 -8.08781371e-01 -2.27250240e+00 2.32590143e-01 6.30736688e-01 2.32590143e-01 -2.70785222e+01
9.88244468e+00 -9.83525433e-01 -6.01017140e-01 -9.83525433e-01 1.94435287e+00 -2.02940717e+00 -6.01017140e-01 -2.02940717e+00 -1.58788302e+01
1.17059199e+01 -1.40365151e+00 4.24427796e-01 -1.40365151e+00 4.91029069e+00 2.01668139e+00 4.24427796e-01 2.01668139e+00 -1.01282200e+01
1.47623872e+01 -2.03445451e+00 -1.31912128e+00 -2.03445451e+00 1.42160491e+01 -5.21893927e+00 -1.31912128e+00 -5.21893927e+00 5.44305408e+00
1.84457685e+01 -4.99106107e-01 -1.97055280e-01 -4.99106107e-01 1.36695035e+01 7.99648223e-01 -1.97055280e-01 7.99648223e-01 5.52014705e+00
1.15617427e+01 2.71221320e-01 -1.89383896e+00 2.71221320e-01 1.51106634e+01 -3.17198028e+00 -1.89383896e+00 -3.17198028e+00 1.15501879e+01
1.34226378e+01 2.34236953e+00 1.70123239e-01 2.34236953e+00 4.98889351e+00 5.39664761e+00 1.70123239e-01 5.39664761e+00 -9.23809856e-01
7.89260149e-01 -3.90241981e+00 1.08762161e+00 -3.90241981e+00 -1.99110141e+01 8.91636277e-01 1.08762161e+00 8.91636277e-01 -3.45059967e+00
5.84919874e+00 -3.17972024e+00 6.76109831e-01 -3.17972024e+00 9.38725242e+00 6.19183401e-01 6.76109831e-01 6.19183401e-01 4.46860600e+00
5.71218050e+00 -4.61575961e+00 1.09113109e+00 -4.61575961e+00 -1.51308389e+01 -1.09454189e+00 1.09113109e+00 -1.09454189e+00 6.97796583e-01
5.26692665e+00 -1.41163667e+00 -1.70034613e+00 -1.41163667e+00 6.34929136e+00 -3.10501630e-02 -1.70034613e+00 -3.10501630e-02 -7.77535200e-01
2.97476786e+00 -1.85068074e+00 1.15844631e+00 -1.85068074e+00 -4.41938740e+00 -5.49662799e-01 1.15844631e+00 -5.49662799e-01 -3.02875206e+01
1.58919537e+00 -1.43629467e+00 1.21054493e-01 -1.43629467e+00 -5.91856143e+00 -1.08350012e-02 1.21054493e-01 -1.08350012e-02 -3.36992579e+01
5.84521502e+00 -1.45024143e+00 2.81502482e-01 -1.45024143e+00 1.17010167e+00 7.49734868e-01 2.81502482e-01 7.49734868e-01 -2.17278674e+01
3.50384825e+00 -4.06194098e-01 -2.08662104e-01 -4.06194098e-01 -2.57215968e+00 8.40707406e-01 -2.08662104e-01 8.40707406e-01 -2.81945214e+01
6.70350018e+00 -1.49857706e+00 5.33246902e-01 -1.49857706e+00 1.17912346e+00 -3.06563368e+00 5.33246902e-01 -3.06563368e+00 -2.02252266e+01
8.58845878e+00 -2.57101513e+00 -4.60568488e-01 -2.57101513e+00 5.94203997e+00 1.76224305e+00 -4.60568488e-01 1.76224305e+00 -1.28048592e+01
1.37722754e+01 2.73411714e-01 1.20056477e+00 2.73411714e-01 1.54280398e+01 -3.84904812e+00 1.20056477e+00 -3.84904812e+00 4.75162292e+00
5.56085889e+00 -9.79478776e-01 -1.41658877e+00 -9.79478776e-01 4.35555840e+00 4.16093876e+00 -1.41658877e+00 4.16093876e+00 -1.64640062e+01
5.81745714e+00 4.26739889e+00 -2.29384549e-01 4.26739889e+00 9.92819381e+00 -2.71671560e+00 -2.29384549e-01 -2.71671560e+00 3.53313167e+00
8.20390344e+00 2.79495549e+00 1.00257477e+00 2.79495549e+00 2.34537899e-01 2.45485163e+00 1.00257477e+00 2.45485163e+00 8.97424102e-01
-4.32520021e-01 3.75393584e-01 5.71288890e-03 3.75393584e-01 3.14325032e+00 1.70741090e+00 5.71288890e-03 1.70741090e+00 1.25922093e+00
1.85244290e+00 9.35421395e-01 -5.92096413e-01 9.35421395e-01 1.09596335e+00 -7.38843456e-01 -5.92096413e-01 -7.38843456e-01 3.24532628e-02
2.38104478e+00 4.82279003e-01 -1.10160816e+00 4.82279003e-01 -6.67472756e+00 6.13242209e-01 -1.10160816e+00 6.13242209e-01 -9.43564951e-01
1.31760334e+00 -4.05177077e-01 -1.00745896e-01 -4.05177077e-01 -5.87805494e+00 -5.46718985e-02 -1.00745896e-01 -5.46718985e-02 6.86765333e-01
-5.56100884e+00 -2.09117380e+00 -9.39854141e-02 -2.09117380e+00 -1.25088925e+01 -7.98658907e-01 -9.39854141e-02 -7.98658907e-01 -4.86643276e+01
-4.99578857e+00 -4.72235411e-01 1.15496325e+00 -4.72235411e-01 -1.45438957e+01 -1.37056587e-02 1.15496325e+00 -1.37056587e-02 -5.00015106e+01
-2.31118217e+00 -8.62035379e-01 1.31137788e-01 -8.62035379e-01 -7.73830130e+00 -1.06671050e+00 1.31137788e-01 -1.06671050e+00 -4.02608514e+01
-4.45298243e+00 -1.64220923e+00 -2.96893328e-01 -1.64220923e+00 -1.00664721e+01 8.31422329e-01 -2.96893328e-01 8.31422329e-01 -4.52615891e+01
-9.07936549e+00 -3.37999368e+00 4.37135780e+00 -3.37999368e+00 -1.11984694e+01 -5.20136762e+00 4.37135780e+00 -5.20136762e+00 -4.93945274e+01
-6.61176652e+00 -3.19209166e+00 7.16991261e-01 -3.19209166e+00 -4.56012523e+00 1.02954066e+00 7.16991261e-01 1.02954066e+00 -4.15117168e+01
6.35433578e+00 -1.62618041e-01 6.54732233e+00 -1.62618041e-01 1.03981367e+01 -2.02025601e+00 6.54732233e+00 -2.02025601e+00 -1.16904612e+01
-1.68160204e+01 -5.87457228e+00 3.41650701e+00 -5.87457228e+00 -1.12004044e+01 1.06079105e+01 3.41650701e+00 1.06079105e+01 -5.46120803e+01
-1.07029374e+01 -4.51263535e+00 2.61387296e+00 -4.51263535e+00 1.15056632e+01 1.83776855e-01 2.61387296e+00 1.83776855e-01 4.29324788e+00
-1.22510562e+01 -6.54173124e+00 6.18440777e-01 -6.54173124e+00 -3.95479751e+00 3.39092064e+00 6.18440777e-01 3.39092064e+00 -3.26731372e+00
-9.03352106e+00 6.82258844e-01 9.40824777e-01 6.82258844e-01 3.12840819e+00 9.38539475e-01 9.40824777e-01 9.38539475e-01 5.72363377e+00
-3.19019532e+00 2.35090335e-01 7.26206164e-01 2.35090335e-01 8.87842615e-01 -1.38611027e+00 7.26206164e-01 -1.38611027e+00 1.50761562e+00
-2.14218211e+00 2.31139898e+00 -7.35945880e-01 2.31139898e+00 -2.93763924e+00 5.08640468e-01 -7.35945880e-01 5.08640468e-01 -1.41938552e-02
-2.69744360e+00 5.66412032e-01 3.69487494e-01 5.66412032e-01 -1.14625542e+00 7.81311184e-01 3.69487494e-01 7.81311184e-01 7.23300919e-01
-2.45888138e+00 -2.29873857e-03 2.84284092e-02 -2.29873857e-03 1.31971395e+00 -7.85200238e-01 2.84284092e-02 -7.85200238e-01 -3.09994020e+01
-1.51478645e+00 -6.65280400e-02 7.04445630e-01 -6.65280400e-02 1.10071677e+00 -5.21357163e-01 7.04445630e-01 -5.21357163e-01 -3.03066945e+01
2.67890438e-01 -6.58795552e-01 4.05944766e-01 -6.58795552e-01 3.46965761e+00 -8.83952295e-02 4.05944766e-01 -8.83952295e-02 -2.56994739e+01
-2.85810877e+00 -8.74673519e-02 3.99167836e-01 -8.74673519e-02 1.68907161e+00 -1.30886782e-01 3.99167836e-01 -1.30886782e-01 -3.08572612e+01
2.86646628e+00 -8.99984375e-01 5.61673507e-01 -8.99984375e-01 3.14353675e+00 1.60807859e-01 5.61673507e-01 1.60807859e-01 -2.35128085e+01
2.59521851e+00 -8.78170229e-01 -1.90648041e-01 -8.78170229e-01 3.88677490e+00 -1.18092526e+00 -1.90648041e-01 -1.18092526e+00 -2.26871587e+01
4.15048759e+00 3.65780182e-02 5.65743581e-02 3.65780182e-02 3.00715104e+00 -2.93239506e-01 5.65743581e-02 -2.93239506e-01 -2.22493716e+01
4.02550314e+00 -6.04157413e-01 -3.99052471e-01 -6.04157413e-01 3.54525451e+00 -3.30130774e-01 -3.99052471e-01 -3.30130774e-01 -2.16670462e+01
3.58639169e+00 -4.03527014e-01 7.67510161e-01 -4.03527014e-01 8.26305568e-01 -5.43135364e-01 7.67510161e-01 -5.43135364e-01 -2.51332588e+01
1.96327823e+00 -5.39926367e-01 1.40682231e-02 -5.39926367e-01 1.90690927e+00 8.96054471e-01 1.40682231e-02 8.96054471e-01 -2.56891063e+01
6.18854651e+00 -5.51162116e-01 9.45605248e-01 -5.51162116e-01 4.75024319e+00 1.75187107e-01 9.45605248e-01 1.75187107e-01 -1.80959015e+01
3.13505037e+00 -2.38446841e-01 6.45536529e-01 -2.38446841e-01 2.12697783e+00 5.19485569e-01 6.45536529e-01 5.19485569e-01 -2.42690080e+01
7.91814637e+00 7.51892298e-01 6.57108516e-01 7.51892298e-01 8.33399630e+00 8.25068235e-01 6.57108516e-01 8.25068235e-01 -1.24955115e+01
6.38575554e+00 3.79977182e-01 -3.24324764e-01 3.79977182e-01 5.35091734e+00 9.14875194e-02 -3.24324764e-01 9.14875194e-02 -1.72886403e+01
2.57217985e+00 -9.55874609e-01 8.02295399e-01 -9.55874609e-01 5.50974423e+00 -1.20269747e+00 8.02295399e-01 -1.20269747e+00 -2.08982446e+01
-1.50496662e+00 -7.91005671e-01 2.14349028e+00 -7.91005671e-01 2.97824240e+00 -5.57253465e-01 2.14349028e+00 -5.57253465e-01 -2.76584530e+01
-1.13072737e+01 -8.73818670e-01 2.38708893e+00 -8.73818670e-01 -7.48207628e+00 -4.73150969e-01 2.38708893e+00 -4.73150969e-01 -5.06880052e+01
-3.71063398e+01 -4.31822256e+00 1.13002802e+01 -4.31822256e+00 -3.57736017e+01 6.74818219e-01 1.13002802e+01 6.74818219e-01 -1.00862420e+02
-2.61879969e+01 -2.68212274e-01 1.90377873e+00 -2.68212274e-01 -2.19970603e+01 2.74015588e+00 1.90377873e+00 2.74015588e+00 -8.16513557e+01
-2.85478334e+01 -4.02460486e-01 3.72467130e+00 -4.02460486e-01 -2.35974042e+01 5.17422119e+00 3.72467130e+00 5.17422119e+00 -8.46852646e+01
-3.08047018e+01 -2.19366831e+00 1.60836250e+00 -2.19366831e+00 -2.34462347e+01 5.53427619e+00 1.60836250e+00 5.53427619e+00 -8.66697998e+01
8.15060490e+00 5.03193946e-02 2.15339397e+00 5.03193946e-02 1.06938269e+01 -1.02733905e+00 2.15339397e+00 -1.02733905e+00 -9.10361171e+00
5.53066421e+00 -3.69502310e-01 1.72463185e+00 -3.69502310e-01 7.59093916e+00 -3.31741849e-01 1.72463185e+00 -3.31741849e-01 -1.54933361e+01
-2.05994394e+01 -1.41041054e+00 6.39352743e+00 -1.41041054e+00 -1.54655851e+01 9.33323385e+00 6.39352743e+00 9.33323385e+00 -6.25094573e+01
-6.80574644e+00 -3.89477551e+00 9.43391800e-01 -3.89477551e+00 -1.22091579e+00 7.45774150e+00 9.43391800e-01 7.45774150e+00 5.38107777e+00
8.52168563e+00 3.20916437e-02 2.19145856e+00 3.20916437e-02 6.79643127e+00 1.11083800e+00 2.19145856e+00 1.11083800e+00 -1.21052088e+01
8.69490093e+00 7.47527689e-01 1.30105193e+00 7.47527689e-01 8.24605376e+00 1.18822433e+00 1.30105193e+00 1.18822433e+00 -1.15552802e+01
2.01371059e+01 -2.70260330e+00 1.59165879e+00 -2.70260330e+00 1.88816571e+01 5.13861954e-01 1.59165879e+00 5.13861954e-01 1.29416567e+01
2.37831298e+01 -1.46732714e+00 -5.85500900e+00 -1.46732714e+00 2.50354993e+01 -1.11451252e+00 -5.85500900e+00 -1.11451252e+00 1.95633485e+01
7.93960025e+00 -6.63097905e-01 4.00271455e-01 -6.63097905e-01 5.92786267e+00 5.97563372e-01 4.00271455e-01 5.97563372e-01 -1.43792192e+01
9.29903936e+00 -7.80151114e-01 3.35385785e-01 -7.80151114e-01 7.05680707e+00 6.67290583e-01 3.35385785e-01 6.67290583e-01 -1.20055410e+01
-8.84122252e-02 -2.39798927e+00 6.91731956e-01 -2.39798927e+00 -3.89355302e-01 2.39981754e+00 6.91731956e-01 2.39981754e+00 -2.85898310e+01
-8.73077059e+00 -5.72920144e-02 -2.18502870e+00 -5.72920144e-02 -8.88027239e+00 4.48061930e+00 -2.18502870e+00 4.48061930e+00 -4.91364145e+01
1.32990140e+00 -3.36972882e-01 -4.97448934e-01 -3.36972882e-01 2.75102377e+00 -3.21635693e-01 -4.97448934e-01 -3.21635693e-01 -2.57133918e+01
2.95801878e-01 1.11853037e-01 -2.02121139e-01 1.11853037e-01 -2.38180161e-01 8.20131034e-01 -2.02121139e-01 8.20131034e-01 -2.98353395e+01
-4.06186795e+00 4.00539458e-01 1.06828505e+00 4.00539458e-01 6.42750025e-01 -7.31997102e-01 1.06828505e+00 -7.31997102e-01 -3.34270134e+01
-5.26343307e+01 -6.10333279e-01 -1.10477802e+00 -6.10333279e-01 -4.75723267e+01 4.44026542e+00 -1.10477802e+00 4.44026542e+00 -1.39210732e+02
3.97605598e-02 -5.89087605e-01 -8.27639108e-02 -5.89087605e-01 6.91819191e-02 -1.87929273e-02 -8.27639108e-02 -1.87929273e-02 -5.35647064e-01
-2.55538573e-01 -3.14954102e-01 -1.92259490e-01 -3.14954102e-01 3.08745801e-02 -9.07657146e-02 -1.92259490e-01 -9.07657146e-02 -2.02041810e-01
3.86082172e-01 -1.86427787e-01 1.45521700e-01 -1.86427787e-01 1.24194309e-01 3.58820989e-01 1.45521700e-01 3.58820989e-01 -9.36964810e-01
2.32980905e-01 -4.60617781e-01 -8.87652785e-02 -4.60617781e-01 -2.85931632e-01 -3.41612220e-01 -8.87652785e-02 -3.41612220e-01 -3.73835891e-01
-2.69288063e-01 1.07911984e-02 9.16424632e-01 1.07911984e-02 3.32833290e-01 -1.63214847e-01 9.16424632e-01 -1.63214847e-01 -2.99326954e+01
1.92982126e-01 2.51474686e-01 5.57019837e-01 2.51474686e-01 2.67287046e-02 3.74584138e-01 5.57019837e-01 3.74584138e-01 -2.97267423e+01
2.12488097e+00 -9.02262907e-01 9.59616134e-01 -9.02262907e-01 2.67819313e+00 4.81009129e-01 9.59616134e-01 4.81009129e-01 -2.46348588e+01
-4.61260855e-01 1.65830661e-01 1.00900133e+00 1.65830661e-01 1.04225792e+00 -5.50729372e-01 1.00900133e+00 -5.50729372e-01 -2.93125315e+01
3.69701119e+00 -1.15209472e+00 5.53855896e-01 -1.15209472e+00 1.73381877e+00 1.38647290e-01 5.53855896e-01 1.38647290e-01 -2.40181887e+01
4.49786122e+00 -1.24414293e+00 1.25548477e+00 -1.24414293e+00 3.58344500e+00 9.34930446e-01 1.25548477e+00 9.34930446e-01 -2.08159747e+01
6.03256661e+00 1.54719388e-01 1.66720765e-01 1.54719388e-01 2.98844776e+00 7.57537480e-01 1.66720765e-01 7.57537480e-01 -2.00053209e+01
7.69937965e+00 -3.96464707e-01 -2.65642554e-02 -3.96464707e-01 5.07278451e+00 -9.12806764e-02 -2.65642554e-02 -9.12806764e-02 -1.59691634e+01
8.44149977e+00 3.02887052e-01 -3.10918463e-01 3.02887052e-01 4.88587549e+00 1.82596844e-01 -3.10918463e-01 1.82596844e-01 -1.52953759e+01
1.66554746e+00 3.26510438e-01 -9.02611226e-01 3.26510438e-01 -9.13796782e-01 9.56394761e-02 -9.02611226e-01 9.56394761e-02 -2.89125757e+01
1.14179153e+01 1.47190318e-02 2.11827874e-01 1.47190318e-02 8.70092982e+00 -3.31513837e-01 2.11827874e-01 -3.31513837e-01 -8.05587769e+00