<VTKFile type="UnstructuredGrid" version="0.1" byte_order="LittleEndian">
<UnstructuredGrid>
<Piece NumberOfPoints="173" NumberOfCells="80">
<Points>
<DataArray type="Float64" NumberOfComponents="3" format="ascii">
 0.00000000e+00  0.00000000e+00  0.00000000e+00
 1.04062474e+00  0.00000000e+00  0.00000000e+00
 1.04346991e+00  1.07450104e+00  0.00000000e+00
 0.00000000e+00  1.07169604e+00  0.00000000e+00
 0.00000000e+00  0.00000000e+00  9.12064731e-01
 1.03997397e+00  0.00000000e+00  9.08624351e-01
 1.04084003e+00  1.06937206e+00  9.12946284e-01
 0.00000000e+00  1.06834733e+00  9.14901972e-01
 2.08554626e+00  0.00000000e+00  0.00000000e+00
 2.08663440e+00  1.08019888e+00  0.00000000e+00
 2.08341885e+00  0.00000000e+00  9.02199149e-01
 2.08565903e+00  1.07264090e+00  9.07235622e-01
 3.13165712e+00  0.00000000e+00  0.00000000e+00
 3.13602924e+00  1.08834183e+00  0.00000000e+00
 3.13708448e+00  0.00000000e+00  8.96259665e-01
 3.13182974e+00  1.07563126e+00  8.97299349e-01
 4.19322157e+00  0.00000000e+00  0.00000000e+00
 4.18157530e+00  1.09440506e+00  0.00000000e+00
 4.19717455e+00  0.00000000e+00  8.88038993e-01
 4.18412399e+00  1.07620585e+00  8.91321540e-01
 5.25352859e+00  0.00000000e+00  0.00000000e+00
 5.23905230e+00  1.10123503e+00  0.00000000e+00
 5.25906849e+00  0.00000000e+00  8.79626036e-01
 5.24839020e+00  1.07915986e+00  8.85329783e-01
 6.32115507e+00  0.00000000e+00  0.00000000e+00
 6.28173161e+00  1.12622082e+00  0.00000000e+00
 6.31764030e+00  0.00000000e+00  8.77936721e-01
 6.30792761e+00  1.10216105e+00  8.73627901e-01
 1.04741478e+00  2.13292289e+00  0.00000000e+00
 0.00000000e+00  2.13073134e+00  0.00000000e+00
 1.04353845e+00  2.12865686e+00  9.24009204e-01
 0.00000000e+00  2.12520814e+00  9.24907029e-01
 2.09438300e+00  2.14455462e+00  0.00000000e+00
 2.08649063e+00  2.13521338e+00  9.22976255e-01
 3.13248968e+00  2.15459108e+00  0.00000000e+00
 3.12639904e+00  2.14297342e+00  9.31131482e-01
 4.16438913e+00  2.17448711e+00  0.00000000e+00
 4.16723824e+00  2.14279318e+00  9.28197443e-01
 5.18557930e+00  2.17623711e+00  0.00000000e+00
 5.20078611e+00  2.14777184e+00  9.32558119e-01
 6.21622705e+00  2.21130657e+00  0.00000000e+00
 6.24169731e+00  2.18074894e+00  9.32616413e-01
 1.05062401e+00  3.16899514e+00  0.00000000e+00
 0.00000000e+00  3.16596174e+00  0.00000000e+00
 1.04548299e+00  3.17011642e+00  9.38000500e-01
 0.00000000e+00  3.16833377e+00  9.38966513e-01
 2.10146785e+00  3.17148304e+00  0.00000000e+00
 2.09216690e+00  3.17269516e+00  9.51399386e-01
 3.12937021e+00  3.18004084e+00  0.00000000e+00
 3.12340236e+00  3.17733049e+00  9.85314846e-01
 4.13547325e+00  3.18690062e+00  0.00000000e+00
 4.12763596e+00  3.17615533e+00  1.00563323e+00
 5.15029812e+00  3.18002605e+00  0.00000000e+00
 5.15193272e+00  3.16146970e+00  1.01389861e+00
 6.15278435e+00  3.21817875e+00  0.00000000e+00
 6.15887403e+00  3.21479750e+00  1.00442123e+00
 1.05285466e+00  4.18860817e+00  0.00000000e+00
 0.00000000e+00  4.19260693e+00  0.00000000e+00
 1.04616714e+00  4.19102383e+00  9.46140885e-01
 0.00000000e+00  4.19595098e+00  9.44224656e-01
 2.10047770e+00  4.18509674e+00  0.00000000e+00
 2.08993149e+00  4.18165588e+00  9.62368965e-01
 3.12446213e+00  4.18006659e+00  0.00000000e+00
 3.11642599e+00  4.17866325e+00  9.92717803e-01
 4.12147665e+00  4.18561792e+00  0.00000000e+00
 4.12108326e+00  4.18561077e+00  9.99985695e-01
 6.12138224e+00  4.18996859e+00  0.00000000e+00
 5.12143469e+00  4.18761206e+00  0.00000000e+00
 6.12150097e+00  4.18999052e+00  9.99726415e-01
 5.12150764e+00  4.18755674e+00  1.00001645e+00
 1.05069673e+00  5.20737171e+00  0.00000000e+00
 0.00000000e+00  5.21643353e+00  0.00000000e+00
 1.04758632e+00  5.21412611e+00  9.43950117e-01
 0.00000000e+00  5.21783161e+00  9.37230349e-01
 2.09846187e+00  5.19181633e+00  0.00000000e+00
 2.08397698e+00  5.19492435e+00  9.56801593e-01
 3.11650872e+00  5.18121195e+00  0.00000000e+00
 3.11038327e+00  5.18466520e+00  9.89501297e-01
 4.11942720e+00  5.18570995e+00  0.00000000e+00
 4.11920547e+00  5.18572807e+00  1.00024438e+00
 5.11928511e+00  5.18771505e+00  0.00000000e+00
 5.11938095e+00  5.18769264e+00  1.00002861e+00
 6.11940384e+00  5.18972349e+00  0.00000000e+00
 6.11942244e+00  5.18965769e+00  1.00000799e+00
 1.05721235e+00  6.23987532e+00  0.00000000e+00
 0.00000000e+00  6.24400806e+00  0.00000000e+00
 1.05136275e+00  6.24067831e+00  9.32164490e-01
 0.00000000e+00  6.25026178e+00  9.26181316e-01
 2.10624123e+00  6.21260500e+00  0.00000000e+00
 2.08671594e+00  6.23004532e+00  9.38009262e-01
 3.12109995e+00  6.19070339e+00  0.00000000e+00
 3.11497927e+00  6.20571566e+00  9.72950876e-01
 4.11846113e+00  6.18634081e+00  0.00000000e+00
 4.11778736e+00  6.18633556e+00  1.00053668e+00
 5.11744833e+00  6.18756628e+00  0.00000000e+00
 5.11756229e+00  6.18765497e+00  9.99966741e-01
 6.11741114e+00  6.18967915e+00  0.00000000e+00
 6.11743975e+00  6.18964911e+00  9.99995112e-01
 0.00000000e+00  0.00000000e+00  1.83143115e+00
 1.04061425e+00  0.00000000e+00  1.82448030e+00
 1.03992295e+00  1.05822349e+00  1.83166993e+00
 0.00000000e+00  1.05903721e+00  1.83274412e+00
 2.09056473e+00  0.00000000e+00  1.81539166e+00
 2.08117175e+00  1.05192518e+00  1.81957781e+00
 3.14072657e+00  0.00000000e+00  1.80336165e+00
 3.14080286e+00  1.05138695e+00  1.80287051e+00
 4.20599604e+00  0.00000000e+00  1.78504658e+00
 4.20073557e+00  1.05194712e+00  1.79687524e+00
 5.27306032e+00  0.00000000e+00  1.77215898e+00
 5.26631165e+00  1.05398011e+00  1.78565633e+00
 6.32651567e+00  0.00000000e+00  1.76622641e+00
 6.33806992e+00  1.06086004e+00  1.77498531e+00
 1.03438270e+00  2.11436963e+00  1.84806919e+00
 0.00000000e+00  2.12051344e+00  1.85322189e+00
 2.07800889e+00  2.11339784e+00  1.84185970e+00
 3.12660217e+00  2.11775494e+00  1.83758938e+00
 4.19122124e+00  2.13188791e+00  1.81963778e+00
 5.25863266e+00  2.13409472e+00  1.82505679e+00
 6.31781816e+00  2.14390612e+00  1.81278825e+00
 1.03004944e+00  3.16573977e+00  1.87494218e+00
 0.00000000e+00  3.16833353e+00  1.87983394e+00
 2.06603265e+00  3.16716862e+00  1.88864303e+00
 3.05933952e+00  3.14529586e+00  2.00941062e+00
 1.03241289e+00  4.20755911e+00  1.89857030e+00
 0.00000000e+00  4.20234442e+00  1.88990951e+00
 2.07111049e+00  4.19002151e+00  1.92641675e+00
 3.09156680e+00  4.16067028e+00  1.96776175e+00
 1.03992081e+00  5.22462988e+00  1.89076650e+00
 0.00000000e+00  5.23144579e+00  1.88398540e+00
 2.06676412e+00  5.21379852e+00  1.91144156e+00
 3.11391830e+00  5.19781303e+00  1.93101215e+00
 1.03483057e+00  6.26386738e+00  1.86234164e+00
 0.00000000e+00  6.26245356e+00  1.85770547e+00
 2.06802344e+00  6.27009010e+00  1.87128353e+00
 3.12364769e+00  6.25877810e+00  1.87386560e+00
 5.11942148e+00  5.18773985e+00  2.00003457e+00
 6.11942101e+00  5.18967390e+00  2.00003147e+00
 6.11748505e+00  6.18968105e+00  1.99998295e+00
 5.11745834e+00  6.18775225e+00  1.99996650e+00
 0.00000000e+00  0.00000000e+00  2.74846625e+00
 1.04770875e+00  0.00000000e+00  2.74648571e+00
 1.05035830e+00  1.05223763e+00  2.75237989e+00
 0.00000000e+00  1.05031323e+00  2.75741982e+00
 2.10578561e+00  0.00000000e+00  2.73288512e+00
 2.09437013e+00  1.04448998e+00  2.74168396e+00
 3.15744114e+00  0.00000000e+00  2.71787596e+00
 3.15847921e+00  1.03981900e+00  2.72143650e+00
 4.21962595e+00  0.00000000e+00  2.70459318e+00
 4.22243834e+00  1.04151773e+00  2.69992232e+00
 5.28490591e+00  0.00000000e+00  2.68827415e+00
 5.28556347e+00  1.04429543e+00  2.69071007e+00
 6.34514618e+00  0.00000000e+00  2.68267012e+00
 6.34491062e+00  1.04470503e+00  2.68473172e+00
 1.03534770e+00  2.09861708e+00  2.77294683e+00
 0.00000000e+00  2.11234522e+00  2.77618742e+00
 2.09360981e+00  2.10017633e+00  2.75153255e+00
 3.14856553e+00  2.10655093e+00  2.71049452e+00
 4.21833134e+00  2.11792135e+00  2.70012736e+00
 5.28120661e+00  2.11069536e+00  2.70192432e+00
 6.33523512e+00  2.11679840e+00  2.69670343e+00
 1.03104079e+00  3.16915894e+00  2.81502771e+00
 0.00000000e+00  3.16599917e+00  2.81111598e+00
 2.08399677e+00  3.14845657e+00  2.78479433e+00
 1.03129292e+00  4.20909262e+00  2.84504890e+00
 0.00000000e+00  4.21683884e+00  2.83865380e+00
 2.07447243e+00  4.20971060e+00  2.87770367e+00
 1.03246319e+00  5.25908852e+00  2.83283520e+00
 0.00000000e+00  5.25307035e+00  2.82900453e+00
 2.07183456e+00  5.25554037e+00  2.84174132e+00
 3.08772016e+00  4.25669003e+00  3.01916456e+00
 3.11063170e+00  5.24715662e+00  2.82098246e+00
 1.03549480e+00  6.29765797e+00  2.79939795e+00
 0.00000000e+00  6.30129337e+00  2.78843188e+00
</DataArray>
</Points>
<PointData Tensors="Stress_Components,Plastic_strain_components" Vevtors="Spatial_displacement,Reaction_force" Scalars="Equivalent_plastic_strain,Stress_Mises,Stress_Max_Principal,Stress_Mid_Principal,Stress_Min_Principal,Stress_Pressure,Stress_Tresca,Stress_Third_Invariant,Plastic_strain_Max_Principal,Plastic_strain_Min_Principal">
<DataArray type="Float32" Name="Stress_Components" NumberOfComponents="9" format="ascii">
-3.22136688e+00 -9.66698304e-03 -1.22966319e-02 -9.66698304e-03 5.38081586e-01 7.19948998e-03 -1.22966319e-02 7.19948998e-03 -3.26732063e+01
-8.56617633e+00 2.14880325e-01 -4.60490934e-03 2.14880325e-01 -4.05488420e+00 -2.47516245e-01 -4.60490934e-03 -2.47516245e-01 -4.33744936e+01
-4.24085140e+00 4.16544795e-01 -3.80300377e-01 4.16544795e-01 -1.46711946e+00 -3.19967344e-01 -3.80300377e-01 -3.19967344e-01 -3.60263650e+01
-4.89018726e+00 9.83979404e-02 -3.83628502e-01 9.83979404e-02 -2.36434841e+00 1.67672988e-02 -3.83628502e-01 1.67672988e-02 -3.77418671e+01
-1.27690434e+00 -5.85410511e-03 -6.72967955e-02 -5.85410511e-03 2.17560333e+00 -2.48573780e-01 -6.72967955e-02 -2.48573780e-01 -2.88229618e+01
-5.80185068e+00 1.23128967e-01 3.67784128e-01 1.23128967e-01 -1.80646247e+00 -5.61356336e-01 3.67784128e-01 -5.61356336e-01 -3.79762280e+01
-2.86211628e+00 3.07422352e-01 -1.22719946e-01 3.07422352e-01 -1.25934184e-01 -3.39626888e-01 -1.22719946e-01 -3.39626888e-01 -3.30918024e+01
-4.29771602e+00 1.01456949e-01 -2.40892407e-01 1.01456949e-01 -1.56917977e+00 1.63718052e-01 -2.40892407e-01 1.63718052e-01 -3.62120843e+01
-1.13107893e+01 1.69589214e-01 -1.66210467e-02 1.69589214e-01 -6.10606408e+00 -4.45676520e-01 -1.66210467e-02 -4.45676520e-01 -4.84961672e+01
-1.25747161e+01 9.42590704e-01 -6.51102435e-01 9.42590704e-01 -8.19049346e+00 -4.56954399e-01 -6.51102435e-01 -4.56954399e-01 -5.21652501e+01
-7.11299932e+00 1.46479968e-01 4.06719934e-01 1.46479968e-01 -3.63717902e+00 -1.04347110e-01 4.06719934e-01 -1.04347110e-01 -4.14925928e+01
-7.21578017e+00 2.50179096e-01 -7.19440867e-01 2.50179096e-01 -3.55354358e+00 -1.15591721e+00 -7.19440867e-01 -1.15591721e+00 -4.13716000e+01
-1.47510552e+01 5.53715169e-01 -7.09028468e-02 5.53715169e-01 -9.48110116e+00 4.05058980e-01 -7.09028468e-02 4.05058980e-01 -5.59212894e+01
-2.00951514e+01 6.23635836e-01 -1.32455978e+00 6.23635836e-01 -1.38547844e+01 -1.14576857e+00 -1.32455978e+00 -1.14576857e+00 -6.62876878e+01
-6.73952448e+00 -4.96964410e-01 -5.80627464e-01 -4.96964410e-01 -4.65689349e+00 -1.04203381e-01 -5.80627464e-01 -1.04203381e-01 -4.22864226e+01
-1.21213425e+01 -4.37964495e-01 -2.87574740e-01 -4.37964495e-01 -7.44379656e+00 -9.10656435e-01 -2.87574740e-01 -9.10656435e-01 -5.07929149e+01
-1.89022501e+01 -1.41749811e+00 -1.03507124e-01 -1.41749811e+00 -1.43596411e+01 1.61811423e-01 -1.03507124e-01 1.61811423e-01 -6.57404842e+01
-2.89522293e+01 -1.25763552e+00 -2.48635241e+00 -1.25763552e+00 -1.77078350e+01 -1.58113141e-01 -2.48635241e+00 -1.58113141e-01 -7.92193837e+01
-8.45865083e+00 -1.37634093e+00 -2.79262543e-01 -1.37634093e+00 -7.12266445e+00 -1.19450323e-01 -2.79262543e-01 -1.19450323e-01 -4.67906036e+01
-5.28923213e-01 -1.01733989e+00 -4.90218108e-01 -1.01733989e+00 9.53733861e-01 2.59960291e-01 -4.90218108e-01 2.59960291e-01 -2.94785900e+01
-1.96535553e+01 -5.36063857e-01 -2.18711123e-01 -5.36063857e-01 -1.30077934e+01 1.11818594e+00 -2.18711123e-01 1.11818594e+00 -6.48923283e+01
-1.27517573e+01 -3.11055470e+00 -2.19180572e+00 -3.11055470e+00 -6.77543712e+00 5.51975280e-01 -2.19180572e+00 5.51975280e-01 -4.98639417e+01
-2.27976310e+00 -5.46475600e-01 -2.68984506e-01 -5.46475600e-01 -9.86449361e-01 1.20354025e+00 -2.68984506e-01 1.20354025e+00 -3.34591465e+01
3.16054006e+00 -1.82799709e+00 -1.55862475e-01 -1.82799709e+00 3.59941590e+00 2.91609530e-01 -1.55862475e-01 2.91609530e-01 -2.24757818e+01
-4.78132515e+01 -4.70961857e+00 -2.18673766e-01 -4.70961857e+00 -3.43649254e+01 5.35815775e-01 -2.18673766e-01 5.35815775e-01 -1.17373421e+02
-6.09950829e+01 -5.14587867e+00 -3.10164297e+00 -5.14587867e+00 -3.63194952e+01 5.15437150e+00 -3.10164297e+00 5.15437150e+00 -1.30246231e+02
-2.65959145e+01 -5.90914309e-01 -1.77048671e+00 -5.90914309e-01 -1.79903635e+01 2.67587981e+00 -1.77048671e+00 2.67587981e+00 -7.72905455e+01
-2.44735267e+01 -1.82059395e+00 -9.96166134e-01 -1.82059395e+00 -1.77772813e+01 2.87789432e+00 -9.96166134e-01 2.87789432e+00 -7.43443191e+01
-1.33841968e+00 8.49077918e-01 -5.22167137e-01 8.49077918e-01 -3.33996415e+00 -3.96335795e-01 -5.22167137e-01 -3.96335795e-01 -3.49149339e+01
4.58391666e-01 1.84844445e-01 -5.46733573e-01 1.84844445e-01 -1.41601801e+00 5.67797432e-03 -5.46733573e-01 5.67797432e-03 -3.09296241e+01
-1.33209727e+00 5.33645069e-01 6.74574815e-02 5.33645069e-01 -1.44146132e+00 -7.57541674e-01 6.74574815e-02 -7.57541674e-01 -3.29610197e+01
2.00104570e+00 2.15329194e-01 8.59449919e-01 2.15329194e-01 1.63793898e+00 2.65645422e-02 8.59449919e-01 2.65645422e-02 -2.60368119e+01
-5.56620288e+00 2.44912818e+00 -8.84888016e-01 2.44912818e+00 -8.05903006e+00 -1.17897892e+00 -8.84888016e-01 -1.17897892e+00 -4.41932790e+01
-3.84342399e+00 1.88712710e+00 1.72614562e+00 1.88712710e+00 -4.48605497e+00 -3.84284360e-01 1.72614562e+00 -3.84284360e-01 -3.81177307e+01
1.84515665e+01 1.41503197e+00 -1.49891813e+00 1.41503197e+00 1.69004397e+01 -5.93814939e-01 -1.49891813e+00 -5.93814939e-01 7.23219121e+00
5.13468688e+00 1.33287475e+00 3.82397484e+00 1.33287475e+00 6.29035323e+00 -2.35449382e-01 3.82397484e+00 -2.35449382e-01 -1.79982346e+01
2.77718612e+01 -1.08491156e+00 -4.64336370e+00 -1.08491156e+00 2.20676070e+01 -2.11829946e-01 -4.64336370e+00 -2.11829946e-01 2.29810357e+01
-1.34667384e+01 -6.69486921e+00 8.60161239e+00 -6.69486921e+00 -1.00424906e+01 6.36447282e-01 8.60161239e+00 6.36447282e-01 -5.00475399e+01
2.76763178e+01 7.13095471e-01 -4.07719029e+00 7.13095471e-01 2.58750173e+01 4.35086127e-01 -4.07719029e+00 4.35086127e-01 2.58279777e+01
-3.96626902e+00 -4.94451016e+00 9.37588083e+00 -4.94451016e+00 -8.79715856e+00 2.75282534e+00 9.37588083e+00 2.75282534e+00 -3.59341086e+01
1.54061298e+01 -5.14453924e+00 -6.77258021e+00 -5.14453924e+00 4.42975998e+00 2.30756468e+00 -6.77258021e+00 2.30756468e+00 -7.19575500e+00
-3.90910123e+01 -1.14301079e+01 1.17564001e+01 -1.14301079e+01 -3.04696376e+01 5.96601613e+00 1.17564001e+01 5.96601613e+00 -9.54631424e+01
5.87892354e-01 6.23221606e-01 2.11509500e-01 6.23221606e-01 -8.14452660e+00 -8.08582030e-01 2.11509500e-01 -8.08582030e-01 -3.69554620e+01
6.71540570e+00 2.69585032e-01 3.05077516e-01 2.69585032e-01 2.04864693e+00 -1.25483982e-03 3.05077516e-01 -1.25483982e-03 -2.00947285e+01
3.02423990e+00 1.21187166e-01 1.05212991e+00 1.21187166e-01 -3.57797953e+00 -6.32206134e-01 1.05212991e+00 -6.32206134e-01 -2.98159600e+01
7.20106155e+00 1.07525430e-01 8.65863577e-01 1.07525430e-01 4.36777854e+00 -3.59540489e-01 8.65863577e-01 -3.59540489e-01 -1.72334750e+01
1.77549696e+01 -1.49660677e-01 -8.77973065e-02 -1.49660677e-01 1.05302914e+01 -1.12126443e+00 -8.77973065e-02 -1.12126443e+00 1.26128912e+00
1.43673066e+01 -8.79651140e-02 1.14622478e+00 -8.79651140e-02 4.69961256e+00 1.51098069e+00 1.14622478e+00 1.51098069e+00 -8.80991429e+00
2.99050615e+01 -4.63045709e-01 1.02341235e-01 -4.63045709e-01 2.78589249e+01 -2.09874956e+00 1.02341235e-01 -2.09874956e+00 3.10922861e+01
2.95338878e+01 -1.50882714e+00 -2.83330728e-01 -1.50882714e+00 2.60042906e+01 2.96068025e+00 -2.83330728e-01 2.96068025e+00 3.10422096e+01
2.43119202e+01 -2.66377418e+00 -9.48850314e-02 -2.66377418e+00 2.24306800e+01 -2.76333929e+00 -9.48850314e-02 -2.76333929e+00 3.05854766e+01
3.17097244e+01 7.71560828e-01 -9.97261572e+00 7.71560828e-01 3.28155177e+01 4.02768179e+00 -9.97261572e+00 4.02768179e+00 5.07631497e+01
3.45902328e+01 -6.84457461e-01 3.45713655e+00 -6.84457461e-01 3.61738574e+01 -4.52351496e-01 3.45713655e+00 -4.52351496e-01 3.63272985e+01
2.79874074e+01 4.75514285e+00 -9.20950556e+00 4.75514285e+00 3.59724450e+01 -1.25293585e+00 -9.20950556e+00 -1.25293585e+00 4.54064452e+01
1.78278812e+01 3.59375489e+00 -3.49662423e-01 3.59375489e+00 7.05975533e+00 1.36462694e+00 -3.49662423e-01 1.36462694e+00 3.04865263e+01
4.19100170e+01 9.97898054e+00 -5.26781005e+00 9.97898054e+00 2.95613399e+01 -1.92013437e+00 -5.26781005e+00 -1.92013437e+00 5.76510410e+01
3.26772466e+00 -7.91531749e-01 1.92426676e-01 -7.91531749e-01 -7.74650010e+00 -1.18269007e+00 1.92426676e-01 -1.18269007e+00 -3.28358119e+01
2.69177699e+00 -8.04395348e-01 3.08449566e-01 -8.04395348e-01 -5.23319888e+00 -4.77145538e-02 3.08449566e-01 -4.77145538e-02 -3.16670599e+01
7.96082577e+00 -1.13248576e+00 1.48248567e+00 -1.13248576e+00 1.24882853e+00 1.97839830e-02 1.48248567e+00 1.97839830e-02 -1.87230605e+01
5.34749126e+00 -7.01893285e-01 3.06090854e-01 -7.01893285e-01 2.14351401e-01 -1.26522662e-01 3.06090854e-01 -1.26522662e-01 -2.34838247e+01
1.44495951e+01 -2.30711728e+00 -9.42685451e-01 -2.30711728e+00 7.72530282e+00 -2.21825893e+00 -9.42685451e-01 -2.21825893e+00 -4.34851885e+00
1.78338019e+01 -1.13351934e+00 -7.43257947e-01 -1.13351934e+00 1.27558463e+01 2.80792630e+00 -7.43257947e-01 2.80792630e+00 5.50853133e+00
1.95492816e+01 -3.78405064e-01 4.44992930e-01 -3.78405064e-01 2.52358139e+01 -3.20985809e+00 4.44992930e-01 -3.20985809e+00 1.96791320e+01
2.86739798e+01 6.76186318e-01 -3.56461412e-01 6.76186318e-01 3.28892439e+01 -2.13189130e+00 -3.56461412e-01 -2.13189130e+00 3.36524361e+01
1.88316652e+01 1.65285792e+00 6.34344021e-01 1.65285792e+00 2.38037341e+01 -2.28843864e+00 6.34344021e-01 -2.28843864e+00 2.35457056e+01
1.38204279e+01 3.23804635e+00 -8.58203769e-02 3.23804635e+00 9.35728105e+00 2.44561863e+00 -8.58203769e-02 2.44561863e+00 2.59242971e+00
-8.78669071e+00 -7.00955486e+00 1.82145447e-01 -7.00955486e+00 -2.90714316e+01 1.35257788e+00 1.82145447e-01 1.35257788e+00 -1.33980963e+01
1.11170932e+01 1.69937555e+00 -8.86447549e-01 1.69937555e+00 1.70491013e+01 1.05268222e+00 -8.86447549e-01 1.05268222e+00 1.33107173e+01
9.83303666e-01 -5.70947814e+00 1.44322252e+00 -5.70947814e+00 -2.02512202e+01 -1.84319818e+00 1.44322252e+00 -1.84319818e+00 -4.70612288e+00
2.77460130e+00 -2.55916309e+00 -2.48183715e+00 -2.55916309e+00 8.89616257e+00 -8.52554440e-01 -2.48183715e+00 -8.52554440e-01 -2.80061704e+00
3.76537192e+00 -2.14131876e+00 1.13891642e+00 -2.14131876e+00 -5.28730738e+00 -3.71608995e-01 1.13891642e+00 -3.71608995e-01 -2.98148985e+01
1.80245638e+00 -1.49329609e+00 4.27505888e-01 -1.49329609e+00 -6.25196075e+00 -9.49780690e-03 4.27505888e-01 -9.49780690e-03 -3.36397815e+01
9.66934419e+00 -1.36643711e+00 7.46451007e-01 -1.36643711e+00 5.54119334e+00 3.28003610e-01 7.46451007e-01 3.28003610e-01 -1.28146080e+01
4.72979677e+00 -6.77422643e-01 -4.92655672e-03 -6.77422643e-01 -1.56009221e+00 7.72937149e-01 -4.92655672e-03 7.72937149e-01 -2.57223371e+01
1.34799774e+01 -2.37076879e+00 4.62895934e-01 -2.37076879e+00 7.76470619e+00 -2.67206819e+00 4.62895934e-01 -2.67206819e+00 -5.20419335e+00
9.55841804e+00 -2.32347265e+00 -7.20932592e-01 -2.32347265e+00 5.71401394e+00 2.48258298e+00 -7.20932592e-01 2.48258298e+00 -1.17496202e+01
1.51015063e+01 2.27223634e+00 2.62558077e+00 2.27223634e+00 1.45770050e+01 -1.54459532e+00 2.62558077e+00 -1.54459532e+00 2.55199814e+00
1.48261814e+01 -1.87221613e+00 -1.33048192e+00 -1.87221613e+00 1.24849084e+01 3.30134986e+00 -1.33048192e+00 3.30134986e+00 1.97237333e+00
1.51975541e+01 2.92275262e+00 -2.18638528e-01 2.92275262e+00 1.95973251e+01 -2.10893181e+00 -2.18638528e-01 -2.10893181e+00 2.20537565e+01
1.15154935e+01 2.75799322e+00 3.18540090e+00 2.75799322e+00 6.11063826e+00 -1.77359462e-01 3.18540090e+00 -1.77359462e-01 5.95743969e+00
-3.73034477e-02 7.80079126e-01 -3.93923543e-01 7.80079126e-01 2.37246978e+00 1.75351781e+00 -3.93923543e-01 1.75351781e+00 4.33433809e+00
3.40692235e+00 5.74284172e-01 -7.67330202e-01 5.74284172e-01 8.81493354e-01 -6.35420787e-01 -7.67330202e-01 -6.35420787e-01 2.89270204e-01
2.92366517e+00 4.79638815e-01 -1.36749303e+00 4.79638815e-01 -8.05902600e+00 3.83522347e-01 -1.36749303e+00 3.83522347e-01 -1.77876931e+00
9.65087454e-01 -1.02210609e+00 9.71565095e-01 -1.02210609e+00 -5.62040381e+00 -1.95430373e-01 9.71565095e-01 -1.95430373e-01 -2.96024526e-01
-1.97040386e+01 -2.62231815e+00 1.15748140e+00 -2.62231815e+00 -3.01997652e+01 -1.36633867e+00 1.15748140e+00 -1.36633867e+00 -8.25804310e+01
-1.73035240e+01 -1.13793039e+00 1.58491969e+00 -1.13793039e+00 -3.15182533e+01 -3.52351442e-02 1.58491969e+00 -3.52351442e-02 -8.09722748e+01
-8.67794728e+00 -1.44215506e+00 9.90322232e-03 -1.44215506e+00 -1.54781970e+01 -1.00517327e+00 9.90322232e-03 -1.00517327e+00 -5.54154596e+01
-1.80737429e+01 -1.53025675e+00 1.02446139e-01 -1.53025675e+00 -2.79478045e+01 8.99996012e-01 1.02446139e-01 8.99996012e-01 -7.88531876e+01
-2.89454083e+01 -6.33536911e+00 5.81262064e+00 -6.33536911e+00 -3.79110603e+01 -5.61244261e+00 5.81262064e+00 -5.61244261e+00 -9.91325607e+01
-1.52636940e+01 -4.09410585e+00 4.83244032e-01 -4.09410585e+00 -1.51471899e+01 2.92732127e-01 4.83244032e-01 2.92732127e-01 -6.21375875e+01
4.71817207e+00 9.22608852e-01 5.13830340e+00 9.22608852e-01 1.77101698e+01 -3.00502452e+00 5.13830340e+00 -3.00502452e+00 -4.53219223e+00
-3.75501881e+01 -8.99987785e+00 7.02008784e-01 -8.99987785e+00 -3.21663183e+01 1.21976080e+01 7.02008784e-01 1.21976080e+01 -1.00337426e+02
1.84373436e+01 1.58049375e+00 -1.01868526e+00 1.58049375e+00 2.87749577e+01 -4.62029982e+00 -1.01868526e+00 -4.62029982e+00 3.50928650e+01
-1.43128412e+01 -9.78541148e+00 1.73042491e+00 -9.78541148e+00 -1.34081953e+01 8.07926750e+00 1.73042491e+00 8.07926750e+00 -1.52812610e+01
-5.48806597e+00 -9.28220987e-01 1.37982857e+00 -9.28220987e-01 2.16957211e+00 1.89147234e+00 1.37982857e+00 1.89147234e+00 5.47269953e+00
-3.72728626e+00 -5.17683427e-01 7.57750034e-01 -5.17683427e-01 2.94144365e+00 -2.69641753e+00 7.57750034e-01 -2.69641753e+00 3.61926271e+00
-1.88384926e+00 2.49373984e+00 -6.20110333e-01 2.49373984e+00 -2.17615604e+00 6.01262808e-01 -6.20110333e-01 6.01262808e-01 -6.19573593e-01
-4.08208025e+00 2.35599793e-01 -2.44156659e-01 2.35599793e-01 6.56990185e-01 1.36564910e+00 -2.44156659e-01 1.36564910e+00 5.72195530e-01
-1.84613562e+00 2.27294024e-03 -1.51163481e-01 2.27294024e-03 1.11332965e+00 -4.23722267e-01 -1.51163481e-01 -4.23722267e-01 -3.06560936e+01
-4.91768137e-01 7.90452510e-02 4.75281656e-01 7.90452510e-02 1.38935429e+00 -4.10519490e-01 4.75281656e-01 -4.10519490e-01 -2.89518337e+01
2.39215807e+00 -2.23807474e-01 1.02990190e-02 -2.23807474e-01 4.52260758e+00 1.92236571e-01 1.02990190e-02 1.92236571e-01 -2.24191553e+01
-2.34888756e+00 -5.70333377e-03 -1.78285763e-01 -5.70333377e-03 8.36515546e-01 1.69106586e-01 -1.78285763e-01 1.69106586e-01 -3.14518571e+01
4.93318881e+00 -7.88557060e-01 5.10134079e-01 -7.88557060e-01 4.97847757e+00 3.15971293e-01 5.10134079e-01 3.15971293e-01 -1.92612414e+01
3.87079473e+00 -4.14273430e-01 -3.38986086e-01 -4.14273430e-01 5.02938932e+00 -8.16727549e-01 -3.38986086e-01 -8.16727549e-01 -2.01936125e+01
3.38163555e+00 -2.80096428e-02 -2.97731152e-01 -2.80096428e-02 3.04725027e+00 4.45076264e-02 -2.97731152e-01 4.45076264e-02 -2.30422391e+01
6.63330305e+00 -3.34023851e-01 -5.58749180e-01 -3.34023851e-01 6.07056981e+00 -4.40435648e-01 -5.58749180e-01 -4.40435648e-01 -1.62255801e+01
4.16257882e+00 -2.99178466e-01 1.23426371e-01 -2.99178466e-01 2.47661421e+00 -2.35370474e-01 1.23426371e-01 -2.35370474e-01 -2.27961255e+01
5.00327206e+00 -5.59776821e-01 -2.41776811e-01 -5.59776821e-01 4.76997972e+00 7.49953656e-01 -2.41776811e-01 7.49953656e-01 -1.93400062e+01
1.00906716e+01 -5.05772635e-01 9.12469011e-02 -5.05772635e-01 8.87595752e+00 5.42545363e-01 9.12469011e-02 5.42545363e-01 -9.42414188e+00
4.69531363e+00 -4.03684862e-01 4.76123169e-02 -4.03684862e-01 3.64244515e+00 6.08791953e-01 4.76123169e-02 6.08791953e-01 -2.09786927e+01
8.53851914e+00 4.59299788e-01 -2.05126017e-01 4.59299788e-01 9.34156656e+00 1.64549059e+00 -2.05126017e-01 1.64549059e+00 -1.04725389e+01
4.81569624e+00 2.74303451e-01 -9.30444777e-01 2.74303451e-01 4.02276397e+00 9.45323832e-01 -9.30444777e-01 9.45323832e-01 -2.02948654e+01
5.47984943e+00 -4.70168035e-01 3.24133017e-01 -4.70168035e-01 6.86068243e+00 -8.21347867e-01 3.24133017e-01 -8.21347867e-01 -1.65466091e+01
-1.30986750e+00 -5.46417899e-01 1.42167568e+00 -5.46417899e-01 1.22697522e+00 -1.04484116e-02 1.42167568e+00 -1.04484116e-02 -2.98161699e+01
-9.75044857e+00 -2.90925734e-01 -7.79466416e-02 -2.90925734e-01 -5.93762659e+00 -1.44585433e-01 -7.79466416e-02 -1.44585433e-01 -4.95583245e+01
-6.02959094e+01 -8.24681914e+00 1.73300152e+01 -8.24681914e+00 -6.10332855e+01 6.98720860e-01 1.73300152e+01 6.98720860e-01 -1.42582087e+02
-4.21389055e+01 -6.52456978e-01 9.07466069e-01 -6.52456978e-01 -3.78051167e+01 2.52317548e+00 9.07466069e-01 2.52317548e+00 -1.16250086e+02
-3.97053330e+01 -1.33532887e+00 2.84147429e+00 -1.33532887e+00 -3.30090737e+01 5.11506796e+00 2.84147429e+00 5.11506796e+00 -1.07183089e+02
-4.56798916e+01 -4.20405090e+00 2.42363513e+00 -4.20405090e+00 -3.51805229e+01 6.48608613e+00 2.42363513e+00 6.48608613e+00 -1.14677830e+02
1.38952471e+01 -2.31008071e-02 8.83025922e-01 -2.31008071e-02 1.53528841e+01 -9.70448022e-01 8.83025922e-01 -9.70448022e-01 1.51920342e+00
1.09550970e+01 -2.39242624e-01 1.06041136e+00 -2.39242624e-01 1.09908551e+01 6.98651094e-02 1.06041136e+00 6.98651094e-02 -6.15007448e+00
-3.45415052e+01 -1.93007456e+00 5.96719805e+00 -1.93007456e+00 -2.98788572e+01 1.24645746e+01 5.96719805e+00 1.24645746e+01 -8.46618862e+01
4.90510807e+01 3.99312234e+00 -1.22288165e+01 3.99312234e+00 4.96874275e+01 -4.02002728e+00 -1.22288165e+01 -4.02002728e+00 7.74676991e+01
1.45643296e+01 -3.37490518e-01 1.85065354e+00 -3.37490518e-01 1.27747267e+01 5.78441937e-01 1.85065354e+00 5.78441937e-01 5.62183380e-01
1.51784475e+01 8.06873649e-01 2.56552730e-01 8.06873649e-01 1.49976520e+01 5.19199972e-01 2.56552730e-01 5.19199972e-01 2.63539875e+00
2.99460646e+01 -1.68281367e+00 -1.01664868e-01 -1.68281367e+00 2.81056566e+01 -8.10297076e-01 -1.01664868e-01 -8.10297076e-01 3.03293505e+01
2.43430505e+01 -7.63348122e-01 -4.98455222e+00 -7.63348122e-01 2.57181880e+01 -1.85988287e-01 -4.98455222e+00 -1.85988287e-01 2.37737878e+01
1.65077259e+01 -2.11741626e-02 2.23418809e-01 -2.11741626e-02 1.36685272e+01 9.14507215e-02 2.23418809e-01 9.14507215e-02 2.84849447e+00
1.09611801e+01 -7.26915874e-01 4.55737256e-01 -7.26915874e-01 8.82990366e+00 4.61153570e-01 4.55737256e-01 4.61153570e-01 -8.43048954e+00
4.39218098e+00 -2.76515444e+00 8.90267279e-01 -2.76515444e+00 3.73236072e+00 2.42791333e+00 8.90267279e-01 2.42791333e+00 -1.89010259e+01
-2.05411482e+01 -1.77224290e+00 -3.64941005e-01 -1.77224290e+00 -1.88517532e+01 6.11504894e+00 -3.64941005e-01 6.11504894e+00 -7.45911388e+01
-2.23742884e+00 -8.18233274e-01 -7.59033412e-02 -8.18233274e-01 -2.52699566e+00 -6.56568119e-02 -7.59033412e-02 -6.56568119e-02 -3.52432098e+01
-4.52647400e+00 -5.43430567e-01 -3.17949891e-01 -5.43430567e-01 -7.45512295e+00 1.53978717e+00 -3.17949891e-01 1.53978717e+00 -4.27444248e+01
-1.04226899e+01 -2.60202542e-01 1.31898578e+00 -2.60202542e-01 -4.06239223e+00 -2.59224315e+00 1.31898578e+00 -2.59224315e+00 -4.50902805e+01
-8.68148460e+01 -3.65962291e+00 -5.97302318e+00 -3.65962291e+00 -8.14089394e+01 4.79128039e+00 -5.97302318e+00 4.79128039e+00 -2.12054741e+02
-2.40469169e-01 -6.07721806e-01 -2.63818718e-01 -6.07721806e-01 2.96689203e-01 2.62663007e-01 -2.63818718e-01 2.62663007e-01 -4.38138276e-01
-4.30819269e-01 -4.31389064e-02 -9.83070731e-02 -4.31389064e-02 -9.98420641e-02 -2.44398333e-01 -9.83070731e-02 -2.44398333e-01 1.48834951e-01
6.92212999e-01 -1.46174446e-01 -1.10596187e-01 -1.46174446e-01 -1.06078871e-01 5.84180776e-01 -1.10596187e-01 5.84180776e-01 -9.67987537e-01
3.92938465e-01 -7.10960805e-01 8.28015804e-03 -7.10960805e-01 -1.99154021e-01 -5.22393674e-01 8.28015804e-03 -5.22393674e-01 -5.75773694e-01
1.05267072e+00 3.67737412e-02 2.00698242e-01 3.67737412e-02 1.81065702e+00 -3.17419982e-02 2.00698242e-01 -3.17419982e-02 -2.69297156e+01
1.72126458e+00 4.60660271e-01 7.37443417e-02 4.60660271e-01 1.69170600e+00 2.98344351e-01 7.37443417e-02 2.98344351e-01 -2.62748510e+01
5.99736346e+00 -2.46996228e-01 1.11290381e-01 -2.46996228e-01 6.59920577e+00 4.66993902e-01 1.11290381e-01 4.66993902e-01 -1.63342400e+01
1.53886238e+00 1.94357757e-01 2.17399575e-01 1.94357757e-01 2.98244619e+00 -2.17905283e-01 2.17399575e-01 -2.17905283e-01 -2.50862466e+01
6.69876254e+00 -8.25684085e-01 1.70737864e-01 -8.25684085e-01 5.89089513e+00 -3.38136993e-02 1.70737864e-01 -3.38136993e-02 -1.63598496e+01
6.02667426e+00 -5.33988426e-01 8.56654992e-01 -5.33988426e-01 5.95504689e+00 9.06402395e-01 8.56654992e-01 9.06402395e-01 -1.68022207e+01
6.75990021e+00 1.31784691e-01 2.72461265e-01 1.31784691e-01 5.68428117e+00 6.14470359e-01 2.72461265e-01 6.14470359e-01 -1.64441512e+01
1.11307243e+01 -5.95967136e-02 6.67196661e-02 -5.95967136e-02 9.60022512e+00 -3.53952236e-02 6.67196661e-02 -3.53952236e-02 -7.56558192e+00
9.20488405e+00 1.23725541e-01 -1.35693090e-01 1.23725541e-01 7.17954341e+00 4.44399884e-01 -1.35693090e-01 4.44399884e-01 -1.21469796e+01
5.21261382e+00 4.55233259e-02 -4.76423888e-01 4.55233259e-02 3.05508339e+00 9.26252306e-02 -4.76423888e-01 9.26252306e-02 -2.09602232e+01
1.24153535e+01 -1.82016492e-01 -8.87901254e-03 -1.82016492e-01 1.07405425e+01 -3.72878276e-03 -8.87901254e-03 -3.72878276e-03 -4.86351311e+00