<VTKFile type="UnstructuredGrid" version="0.1" byte_order="LittleEndian">
<UnstructuredGrid>
<Piece NumberOfPoints="191" NumberOfCells="79">
<Points>
<DataArray type="Float64" NumberOfComponents="3" format="ascii">
 1.04610181e+00  5.25233126e+00  1.87596166e+00
 2.07670498e+00  5.23956776e+00  1.89855075e+00
 2.07843685e+00  6.30326176e+00  1.85349488e+00
 1.04071867e+00  6.29678917e+00  1.84461534e+00
 1.03744864e+00  5.29088306e+00  2.80988646e+00
 2.08204174e+00  5.28613663e+00  2.82094097e+00
 2.06901717e+00  6.36762524e+00  2.76559258e+00
 1.04096448e+00  6.33476973e+00  2.77229142e+00
 3.12984705e+00  5.22152185e+00  1.92171848e+00
 3.14092541e+00  6.28959513e+00  1.85688019e+00
 3.12424469e+00  5.27721882e+00  2.79802060e+00
 3.17957973e+00  6.34050322e+00  2.71409535e+00
 5.13738108e+00  5.20758629e+00  2.00003386e+00
 6.13738203e+00  5.20892715e+00  2.00003195e+00
 6.13603926e+00  6.20893526e+00  1.99998271e+00
 5.13601160e+00  6.20760059e+00  1.99996555e+00
 5.13736963e+00  5.20764971e+00  3.00002050e+00
 6.13736296e+00  5.20899916e+00  3.00004053e+00
 6.13601494e+00  6.20899010e+00  2.99997330e+00
 5.13603020e+00  6.20763922e+00  2.99997449e+00
 0.00000000e+00  0.00000000e+00  2.72094202e+00
 1.05311680e+00  0.00000000e+00  2.71895695e+00
 1.05635226e+00  1.05836987e+00  2.72483540e+00
 0.00000000e+00  1.05612707e+00  2.73008752e+00
 0.00000000e+00  0.00000000e+00  3.62590051e+00
 1.07136142e+00  0.00000000e+00  3.62675500e+00
 1.07335305e+00  1.05846262e+00  3.62836671e+00
 0.00000000e+00  1.05469787e+00  3.63712025e+00
 2.11795235e+00  0.00000000e+00  2.70456743e+00
 2.10542846e+00  1.05023372e+00  2.71364450e+00
 2.13820553e+00  0.00000000e+00  3.61634779e+00
 2.14125681e+00  1.06179070e+00  3.61600733e+00
 3.17548442e+00  0.00000000e+00  2.68875098e+00
 3.17667341e+00  1.04555237e+00  2.69266939e+00
 3.20619917e+00  0.00000000e+00  3.59927654e+00
 3.19908905e+00  1.05417156e+00  3.60112953e+00
 4.24475145e+00  0.00000000e+00  2.67513108e+00
 4.24776936e+00  1.04726219e+00  2.67016172e+00
 4.26617241e+00  0.00000000e+00  3.58692122e+00
 4.26283646e+00  1.04539812e+00  3.58013153e+00
 5.31793022e+00  0.00000000e+00  2.65845752e+00
 5.31827927e+00  1.05015957e+00  2.66075444e+00
 5.32450199e+00  0.00000000e+00  3.57786465e+00
 5.32348156e+00  1.04457402e+00  3.56585956e+00
 6.38569212e+00  0.00000000e+00  2.65322375e+00
 6.38508940e+00  1.05115831e+00  2.65476346e+00
 6.37175703e+00  0.00000000e+00  3.57434797e+00
 6.38689756e+00  1.04528081e+00  3.56604147e+00
 1.04001606e+00  2.11046457e+00  2.74625373e+00
 0.00000000e+00  2.12553978e+00  2.74970484e+00
 1.07313013e+00  2.11787391e+00  3.65188694e+00
 0.00000000e+00  2.11785340e+00  3.65349770e+00
 2.10548043e+00  2.11268806e+00  2.72447252e+00
 2.15118504e+00  2.12528324e+00  3.62437105e+00
 3.16596460e+00  2.11924076e+00  2.68118310e+00
 3.20943809e+00  2.11867332e+00  3.56755328e+00
 4.24266148e+00  2.13165808e+00  2.66994238e+00
 4.25199842e+00  2.10397625e+00  3.54888439e+00
 5.31207943e+00  2.12425089e+00  2.67244935e+00
 5.31775236e+00  2.11651111e+00  3.54969597e+00
 6.37168026e+00  2.13249254e+00  2.66688800e+00
 6.37472963e+00  2.12064695e+00  3.54867411e+00
 1.03599000e+00  3.18895245e+00  2.79113150e+00
 0.00000000e+00  3.18564963e+00  2.78722692e+00
 1.06964803e+00  3.18628621e+00  3.68825150e+00
 0.00000000e+00  3.18507409e+00  3.69779396e+00
 2.09483933e+00  3.16600227e+00  2.75972652e+00
 2.16937995e+00  3.19098592e+00  3.61410975e+00
 3.07411218e+00  3.14069319e+00  2.44627905e+00
 3.23854136e+00  3.17026711e+00  3.49176097e+00
 1.03654516e+00  4.23415375e+00  2.82434630e+00
 0.00000000e+00  4.24280453e+00  2.81653833e+00
 1.05643153e+00  4.25718594e+00  3.75329971e+00
 0.00000000e+00  4.26535892e+00  3.73056364e+00
 0.00000000e+00  5.28438330e+00  2.80547142e+00
 1.05012596e+00  5.33704185e+00  3.73128438e+00
 0.00000000e+00  5.31598377e+00  3.71703458e+00
 2.08520365e+00  4.23471832e+00  2.85976267e+00
 2.12578249e+00  4.27104950e+00  3.72868085e+00
 2.12059116e+00  5.31439590e+00  3.73662186e+00
 0.00000000e+00  6.33924341e+00  2.76072645e+00
 1.07052517e+00  6.39555454e+00  3.65845871e+00
 0.00000000e+00  6.41297579e+00  3.67795110e+00
 2.12015319e+00  6.41865396e+00  3.66173220e+00
 3.15877652e+00  5.29161739e+00  3.60615897e+00
 3.25061798e+00  6.33129597e+00  3.60904980e+00
 0.00000000e+00  0.00000000e+00  4.52213001e+00
 1.08839679e+00  0.00000000e+00  4.51934671e+00
 1.09227169e+00  1.06046462e+00  4.52253056e+00
 0.00000000e+00  1.05626512e+00  4.52573109e+00
 2.16175032e+00  0.00000000e+00  4.51450205e+00
 2.17257047e+00  1.07001817e+00  4.51311445e+00
 3.22431898e+00  0.00000000e+00  4.50572824e+00
 3.23098683e+00  1.07227385e+00  4.50508022e+00
 4.28185654e+00  0.00000000e+00  4.49693584e+00
 4.27475548e+00  1.06538117e+00  4.49651957e+00
 5.32826805e+00  0.00000000e+00  4.49268675e+00
 5.32125282e+00  1.05922484e+00  4.48818445e+00
 6.36587429e+00  0.00000000e+00  4.48975229e+00
 6.36756134e+00  1.06458449e+00  4.49110889e+00
 1.10519028e+00  2.12786174e+00  4.52965260e+00
 0.00000000e+00  2.11697316e+00  4.53735352e+00
 2.19215822e+00  2.14092565e+00  4.51236773e+00
 3.24892211e+00  2.14242029e+00  4.48491621e+00
 4.28203058e+00  2.12805486e+00  4.46197414e+00
 5.30614328e+00  2.11008048e+00  4.44914007e+00
 6.33630991e+00  2.11772394e+00  4.44920301e+00
 1.10699439e+00  3.17781925e+00  4.56839037e+00
 0.00000000e+00  3.19746089e+00  4.58398008e+00
 2.21477008e+00  3.18506098e+00  4.50544119e+00
 3.28788447e+00  3.17762184e+00  4.42938232e+00
 4.27179861e+00  3.07682443e+00  3.35873222e+00
 4.30561543e+00  3.15957689e+00  4.40617561e+00
 1.11295891e+00  4.25199366e+00  4.64753008e+00
 0.00000000e+00  4.23811865e+00  4.60477257e+00
 2.22657299e+00  4.23239136e+00  4.54726410e+00
 1.09319866e+00  5.37048244e+00  4.57688761e+00
 0.00000000e+00  5.37925243e+00  4.57744598e+00
 1.11325157e+00  6.48315811e+00  4.54214525e+00
 0.00000000e+00  6.47683477e+00  4.55654287e+00
 2.17218161e+00  5.34162283e+00  4.58420658e+00
 2.25976992e+00  6.42172670e+00  4.55285025e+00
 3.26431656e+00  5.24810362e+00  4.45938969e+00
 3.37280631e+00  6.27919960e+00  4.49077225e+00
 4.06332302e+00  5.22007036e+00  3.28095126e+00
 4.22512531e+00  6.21122742e+00  3.37291431e+00
 4.34101820e+00  5.15954447e+00  4.40489435e+00
 4.36018705e+00  6.16083765e+00  4.40523052e+00
 5.34132671e+00  5.14190483e+00  3.40504956e+00
 6.34115124e+00  5.12405062e+00  3.40502715e+00
 6.35901308e+00  6.12389517e+00  3.40507054e+00
 5.35913420e+00  6.14178514e+00  3.40514421e+00
 5.34129477e+00  5.14188385e+00  4.40504980e+00
 6.34121275e+00  5.12401056e+00  4.40504742e+00
 6.35901546e+00  6.12386703e+00  4.40506458e+00
 5.35926914e+00  6.14162827e+00  4.40513659e+00
 0.00000000e+00  0.00000000e+00  5.40507889e+00
 1.09372914e+00  0.00000000e+00  5.40507889e+00
 1.10105646e+00  1.06473827e+00  5.40507889e+00
 0.00000000e+00  1.05822194e+00  5.40507889e+00
 2.17384243e+00  0.00000000e+00  5.40507889e+00
 2.18107700e+00  1.07520378e+00  5.40507889e+00
 3.23212504e+00  0.00000000e+00  5.40507889e+00
 3.24393821e+00  1.08045149e+00  5.40507889e+00
 4.28467464e+00  0.00000000e+00  5.40507889e+00
 4.28523636e+00  1.07971501e+00  5.40507889e+00
 5.32759953e+00  0.00000000e+00  5.40507889e+00
 5.32300854e+00  1.07445538e+00  5.40507889e+00
 6.37248468e+00  0.00000000e+00  5.40507889e+00
 6.34781027e+00  1.08418810e+00  5.40507889e+00
 1.12179267e+00  2.11736631e+00  5.40507889e+00
 0.00000000e+00  2.11162472e+00  5.40507889e+00
 2.21545434e+00  2.14208364e+00  5.40507889e+00
 3.26402545e+00  2.15439153e+00  5.40507889e+00
 4.29375172e+00  2.14360237e+00  5.40507889e+00
 5.30311346e+00  2.12784815e+00  5.40507889e+00
 6.32350206e+00  2.12871957e+00  5.40507889e+00
 1.13000798e+00  3.21996546e+00  5.40507889e+00
 0.00000000e+00  3.22613096e+00  5.40507889e+00
 2.24948931e+00  3.19388628e+00  5.40507889e+00
 3.30394578e+00  3.18839455e+00  5.40507889e+00
 4.30627871e+00  3.16030264e+00  5.40507889e+00
 5.30597019e+00  3.14127016e+00  4.40436649e+00
 5.30652666e+00  3.14195728e+00  5.40507889e+00
 6.30804777e+00  3.12624907e+00  4.40368271e+00
 6.30829811e+00  3.12802505e+00  5.40507889e+00
 3.32361460e+00  4.17891169e+00  4.38773155e+00
 3.33364224e+00  4.19155407e+00  5.40507889e+00
 2.32032943e+00  4.22269058e+00  5.40507889e+00
 4.32377195e+00  4.15929890e+00  4.40533781e+00
 4.32392216e+00  4.15950584e+00  5.40507889e+00
 5.32354069e+00  4.14209890e+00  4.40503263e+00
 5.32362652e+00  4.14200115e+00  5.40507889e+00
 6.32325315e+00  4.12442303e+00  4.40512896e+00
 6.32316303e+00  4.12427950e+00  5.40507889e+00
 0.00000000e+00  4.20718622e+00  5.40507889e+00
 1.14234614e+00  4.23819542e+00  5.40507889e+00
 1.12734497e+00  5.39925432e+00  5.40507889e+00
 0.00000000e+00  5.42367363e+00  5.40507889e+00
 5.34123945e+00  5.14188242e+00  5.40507889e+00
 4.34141254e+00  5.15962505e+00  5.40507889e+00
 6.34124994e+00  5.12403631e+00  5.40507889e+00
 1.13739955e+00  6.50537825e+00  5.40507889e+00
 0.00000000e+00  6.49417162e+00  5.40507889e+00
 2.21601748e+00  5.34820271e+00  5.40507889e+00
 2.31038713e+00  6.41684294e+00  5.40507889e+00
 3.28291512e+00  5.22606897e+00  5.40507889e+00
 3.39516664e+00  6.26302958e+00  5.40507889e+00
 4.36055470e+00  6.16006613e+00  5.40507889e+00
 5.35928249e+00  6.14156675e+00  5.40507889e+00
 6.35901213e+00  6.12386465e+00  5.40507889e+00
</DataArray>
</Points>
<PointData Tensors="Stress_Components,Plastic_strain_components" Vevtors="Spatial_displacement,Reaction_force" Scalars="Equivalent_plastic_strain,Stress_Mises,Stress_Max_Principal,Stress_Mid_Principal,Stress_Min_Principal,Stress_Pressure,Stress_Tresca,Stress_Third_Invariant,Plastic_strain_Max_Principal,Plastic_strain_Min_Principal">
<DataArray type="Float32" Name="Stress_Components" NumberOfComponents="9" format="ascii">
1.77380376e+01 7.56466538e-02 1.75880490e-01 7.56466538e-02 1.48452216e+01 3.19442777e-02 1.75880490e-01 3.19442777e-02 5.41832554e+00
5.87364739e+00 -2.81883096e+00 8.99288909e-01 -2.81883096e+00 5.02700931e+00 2.49047366e+00 8.99288909e-01 2.49047366e+00 -1.57464748e+01
-1.29591503e+01 -4.29041378e-01 1.42896926e+00 -4.29041378e-01 -6.33341932e+00 -2.88081390e+00 1.42896926e+00 -2.88081390e+00 -5.02213268e+01
-3.11711001e+00 -9.11265999e-01 3.41278948e-02 -9.11265999e-01 -3.77787316e+00 -7.72045841e-02 3.41278948e-02 -7.72045841e-02 -3.75350266e+01
1.63538320e+01 6.03061849e-02 8.60637087e-01 6.03061849e-02 1.69654683e+01 -3.26146904e-01 8.60637087e-01 -3.26146904e-01 5.98241162e+00
2.34892957e+01 -2.45913877e+00 3.25335978e+00 -2.45913877e+00 2.60610591e+01 1.20472687e-01 3.25335978e+00 1.20472687e-01 1.90754640e+01
-1.25441301e+01 -2.03991950e-01 7.16901004e-01 -2.03991950e-01 8.96935105e-01 -5.92469275e-02 7.16901004e-01 -5.92469275e-02 -4.06322029e+01
1.22859106e+01 -2.84478895e-01 3.62828489e-01 -2.84478895e-01 1.09136019e+01 4.46570121e-01 3.62828489e-01 4.46570121e-01 -5.32668400e+00
-2.23208382e+01 -2.03506768e+00 -1.33742942e-01 -2.03506768e+00 -2.02981518e+01 6.34540218e+00 -1.33742942e-01 6.34540218e+00 -7.84775735e+01
-9.10301170e+01 -4.31637526e+00 -6.65915871e+00 -4.31637526e+00 -8.55020618e+01 4.88498235e+00 -6.65915871e+00 4.88498235e+00 -2.20889153e+02
-7.52742774e+01 9.09137774e+00 -2.81210949e+01 9.09137774e+00 -7.98365451e+01 -1.79652047e+00 -2.81210949e+01 -1.79652047e+00 -1.76204559e+02
-5.34713578e+01 -6.28151894e-02 -5.02285933e+00 -6.28151894e-02 -7.81867676e+01 -1.07923830e+00 -5.02285933e+00 -1.07923830e+00 -1.70429323e+02
-2.34679345e-01 -5.95512271e-01 -2.75076635e-01 -5.95512271e-01 3.28068692e-01 2.69832194e-01 -2.75076635e-01 2.69832194e-01 -4.79917273e-01
-4.31236971e-01 -3.95011883e-02 -9.18677747e-02 -3.95011883e-02 -1.22560248e-01 -2.28391808e-01 -9.18677747e-02 -2.28391808e-01 1.67416066e-01
6.94715649e-01 -1.66478224e-01 -1.28706552e-01 -1.66478224e-01 -1.08744688e-01 5.73818829e-01 -1.28706552e-01 5.73818829e-01 -9.72423762e-01
3.66545945e-01 -7.22702086e-01 3.87878120e-02 -7.22702086e-01 -1.82815636e-01 -5.16771704e-01 3.87878120e-02 -5.16771704e-01 -5.70294008e-01
2.33210176e-01 2.02983230e-01 3.79613489e-01 2.02983230e-01 5.64693585e-02 1.59378201e-01 3.79613489e-01 1.59378201e-01 -2.39960738e-02
-5.56666143e-02 2.51329001e-02 1.12713985e-01 2.51329001e-02 -1.54421389e-01 8.80131125e-03 1.12713985e-01 8.80131125e-03 4.75891620e-01
-5.26107028e-02 6.40717745e-02 -2.42924049e-01 6.40717745e-02 2.04357967e-01 -5.39885163e-01 -2.42924049e-01 -5.39885163e-01 1.14002392e-01
-3.11390489e-01 2.41952285e-01 -1.42949179e-01 2.41952285e-01 -1.32471785e-01 3.44401687e-01 -1.42949179e-01 3.44401687e-01 7.09415555e-01
1.46194553e+00 4.02601752e-02 1.42550740e-01 4.02601752e-02 2.23429751e+00 -4.13180655e-03 1.42550740e-01 -4.13180655e-03 -2.60251322e+01
2.20729872e+00 4.68594760e-01 1.85371796e-02 4.68594760e-01 2.18471861e+00 2.68399373e-01 1.85371796e-02 2.68399373e-01 -2.52160238e+01
6.66217190e+00 -1.84376800e-01 1.75991915e-02 -1.84376800e-01 7.25093868e+00 4.51134296e-01 1.75991915e-02 4.51134296e-01 -1.49159284e+01
2.00240028e+00 1.84842158e-01 1.25559379e-01 1.84842158e-01 3.40659350e+00 -1.95408862e-01 1.25559379e-01 -1.95408862e-01 -2.41277335e+01
6.83752871e+00 -3.02051567e-02 5.47239095e-01 -3.02051567e-02 5.86449623e+00 2.09403701e-01 5.47239095e-01 2.09403701e-01 -1.62538509e+01
3.47363532e-01 2.28681408e-01 -2.29635013e-01 2.28681408e-01 -3.29453945e-02 1.09689021e+00 -2.29635013e-01 1.09689021e+00 -2.95736980e+01
4.59011954e+00 3.58477616e-01 2.22737178e-01 3.58477616e-01 4.09812206e+00 3.94956477e-01 2.22737178e-01 3.94956477e-01 -2.05947302e+01
1.32222144e+00 3.40839583e-01 5.72569445e-01 3.40839583e-01 -6.69122934e-02 -6.24960113e-01 5.72569445e-01 -6.24960113e-01 -2.85834198e+01
7.24263763e+00 -7.94256039e-01 1.63713196e-01 -7.94256039e-01 6.53717768e+00 -6.91117318e-02 1.63713196e-01 -6.91117318e-02 -1.50759495e+01
6.03669429e+00 -4.85231076e-01 8.28649846e-01 -4.85231076e-01 6.03650171e+00 8.88455483e-01 8.28649846e-01 8.88455483e-01 -1.67227978e+01
1.26684427e-01 9.99145461e-02 -8.75593023e-03 9.99145461e-02 2.56992042e-01 3.16950267e-01 -8.75593023e-03 3.16950267e-01 -2.96404687e+01
-1.40289360e+00 5.98029114e-02 1.04108699e+00 5.98029114e-02 1.15936190e-01 1.80662460e+00 1.04108699e+00 1.80662460e+00 -3.11115667e+01
6.49963886e+00 1.25655787e-01 2.86308754e-01 1.25655787e-01 5.56664586e+00 6.38963234e-01 2.86308754e-01 6.38963234e-01 -1.68577819e+01
1.14141307e+01 -4.02144282e-02 5.36814351e-02 -4.02144282e-02 1.00089946e+01 -6.98351562e-02 5.36814351e-02 -6.98351562e-02 -6.83159010e+00
3.45621282e+00 -7.64137402e-01 3.29744268e-01 -7.64137402e-01 2.48389534e+00 8.55154516e-01 3.29744268e-01 8.55154516e-01 -2.34920869e+01
3.61326629e+00 -6.30456149e-01 5.43269706e-01 -6.30456149e-01 3.63632119e+00 7.51887097e-01 5.43269706e-01 7.51887097e-01 -2.20237572e+01
9.07463752e+00 8.71477183e-02 -1.85938681e-01 8.71477183e-02 7.17901385e+00 4.91942644e-01 -1.85938681e-01 4.91942644e-01 -1.22978106e+01
6.01361215e+00 -2.69515160e-03 -4.71649925e-01 -2.69515160e-03 3.93467677e+00 1.30858525e-01 -4.71649925e-01 1.30858525e-01 -1.91482412e+01
7.31516457e+00 -2.99186207e-01 -1.21456767e-01 -2.99186207e-01 5.67775202e+00 5.82535155e-01 -1.21456767e-01 5.82535155e-01 -1.59027195e+01
1.53020214e+01 -3.72879785e-01 3.36260427e-01 -3.72879785e-01 1.41430344e+01 -2.16939729e-01 3.36260427e-01 -2.16939729e-01 1.79785848e+00
1.23425797e+01 -1.97001269e-01 -4.36556572e-02 -1.97001269e-01 1.08102430e+01 4.07364648e-02 -4.36556572e-02 4.07364648e-02 -4.87758106e+00
1.01459224e+01 6.20467048e-02 -3.09950768e-01 6.20467048e-02 7.58929121e+00 1.03155744e-01 -3.09950768e-01 1.03155744e-01 -1.07195673e+01
1.70296272e+01 -1.56280140e-01 -1.33901836e-01 -1.56280140e-01 1.71787646e+01 -2.85421868e-01 -1.33901836e-01 -2.85421868e-01 6.97517014e+00
8.46749115e+00 -2.27044635e-01 -1.17895219e-01 -2.27044635e-01 7.16681220e+00 -2.97440736e-01 -1.17895219e-01 -2.97440736e-01 -1.30537295e+01
1.26203179e+01 -9.02815289e-02 -1.33352347e-01 -9.02815289e-02 1.19590945e+01 -2.54630506e-01 -1.33352347e-01 -2.54630506e-01 -3.29078436e+00
1.77420342e+01 3.53519984e-01 -4.30215886e-01 3.53519984e-01 1.57636842e+01 7.65483137e-02 -4.30215886e-01 7.65483137e-02 6.20827913e+00
1.87113302e+01 4.46762919e-01 3.07061542e-02 4.46762919e-01 1.95476909e+01 -6.79196108e-01 3.07061542e-02 -6.79196108e-01 1.14503183e+01
1.18549373e+01 5.44997260e-01 3.91841491e-01 5.44997260e-01 1.07096885e+01 -9.16929131e-01 3.91841491e-01 -9.16929131e-01 -5.41817641e+00
2.42725539e+00 -7.46120486e-01 1.32660274e+00 -7.46120486e-01 4.69361085e+00 1.30134635e-02 1.32660274e+00 1.30134635e-02 -2.18008356e+01
3.78368258e+00 -1.06143926e+00 8.54626562e-01 -1.06143926e+00 7.04409504e+00 -2.50843371e-01 8.54626562e-01 -2.50843371e-01 -1.79642980e+01
-5.04463091e+00 4.60234016e-01 2.22539232e+00 4.60234016e-01 -6.19159871e+00 2.08236716e+00 2.22539232e+00 2.08236716e+00 -4.16466899e+01
7.49655485e-01 -1.09005557e-01 3.35935758e-01 -1.09005557e-01 1.07293820e+00 -5.02907811e-02 3.35935758e-01 -5.02907811e-02 -2.80888908e+01
1.77310886e+01 3.00174503e+00 4.34953827e+00 3.00174503e+00 1.61991709e+01 3.60803387e+00 4.34953827e+00 3.60803387e+00 -3.58587674e-01
-6.99211279e+00 8.83027090e-01 -1.80710942e-01 8.83027090e-01 -6.73196977e+00 3.22660371e-01 -1.80710942e-01 3.22660371e-01 -4.33807626e+01
-8.35025650e+01 -7.26456308e+00 -1.83889988e+01 -7.26456308e+00 -8.44519562e+01 -2.15438857e+00 -1.83889988e+01 -2.15438857e+00 -1.90414249e+02
1.36845646e+01 1.44759290e+00 6.71750903e-01 1.44759290e+00 1.78624417e+01 1.27655693e+00 6.71750903e-01 1.27655693e+00 -7.93019295e-01
-5.32367468e+01 -1.38020115e+00 -4.00143760e+00 -1.38020115e+00 -4.84825611e+01 1.06658445e+00 -4.00143760e+00 1.06658445e+00 -1.39560921e+02
-3.80731461e+01 -2.03313161e+00 -1.79127324e+01 -2.03313161e+00 -4.85672363e+01 -1.41168205e+00 -1.79127324e+01 -1.41168205e+00 -1.00770720e+02
-3.55246840e+01 -1.74623281e+00 -1.55885693e-01 -1.74623281e+00 -3.09375162e+01 1.59716436e+00 -1.55885693e-01 1.59716436e+00 -1.01642193e+02
-4.79452686e+01 -4.54892157e-01 -4.26158917e+00 -4.54892157e-01 -4.22295704e+01 -1.73814822e+00 -4.26158917e+00 -1.73814822e+00 -1.27012793e+02
-3.05851126e+01 -2.84735906e+00 -7.71870300e-01 -2.84735906e+00 -2.13585887e+01 3.50469992e-01 -7.71870300e-01 3.50469992e-01 -8.52859612e+01
-4.81671543e+01 -4.58062971e+00 -4.87973452e+00 -4.58062971e+00 -3.64426250e+01 -3.76994038e+00 -4.87973452e+00 -3.76994038e+00 -1.19029591e+02
3.54632684e+00 1.35309196e-01 2.65523475e+00 1.35309196e-01 6.09644069e+00 5.76430321e-01 2.65523475e+00 5.76430321e-01 -1.88717277e+01
1.29252236e+01 5.69383753e-02 1.09325132e+00 5.69383753e-02 1.39037523e+01 -2.39079786e-01 1.09325132e+00 -2.39079786e-01 -8.38067532e-01
-1.05052919e+01 -4.12430324e-01 3.74794913e+00 -4.12430324e-01 -1.08283871e+01 1.69884807e+00 3.74794913e+00 1.69884807e+00 -5.20615559e+01
3.88754439e+00 4.04319875e-02 1.53866616e+00 4.04319875e-02 5.40899789e+00 1.08912839e-01 1.53866616e+00 1.08912839e-01 -1.98973789e+01
-1.13242790e+02 -1.24265883e+01 8.91612050e+00 -1.24265883e+01 -1.03396810e+02 -1.58963001e+01 8.91612050e+00 -1.58963001e+01 -2.36371128e+02
-2.09808868e+01 2.53989179e+00 2.60841229e+00 2.53989179e+00 -2.84961988e+01 -2.88717596e+00 2.60841229e+00 -2.88717596e+00 -8.44358840e+01
1.32884537e+02 1.50144815e+01 2.38871536e+01 1.50144815e+01 1.28449921e+02 2.34637489e+01 2.38871536e+01 2.34637489e+01 2.02347244e+02
8.06849925e+00 -5.56642868e+00 -8.25781266e+00 -5.56642868e+00 5.81565603e+00 -5.27294151e+00 -8.25781266e+00 -5.27294151e+00 -7.66139666e-01
2.47372956e+01 -6.19401932e-02 -2.44343609e+00 -6.19401932e-02 2.47868342e+01 2.10837909e-01 -2.44343609e+00 2.10837909e-01 2.27783788e+01
1.40560061e+01 -3.79477330e-01 1.19532146e+00 -3.79477330e-01 1.42717119e+01 6.60404686e-01 1.19532146e+00 6.60404686e-01 9.99005795e-01
2.15745815e+01 -5.88585988e-01 -2.76355155e-01 -5.88585988e-01 2.34731346e+01 1.03191473e+00 -2.76355155e-01 1.03191473e+00 1.95047712e+01
6.78877568e+00 -9.34493458e-01 2.46379463e+00 -9.34493458e-01 7.40814543e+00 1.80330595e+00 2.46379463e+00 1.80330595e+00 -1.39396873e+01
1.47629168e+01 -6.08946327e-02 7.17425989e-02 -6.08946327e-02 1.46623648e+01 2.54231818e-01 7.17425989e-02 2.54231818e-01 1.86834013e+00
2.16762665e+01 3.38550257e-01 1.07181462e+00 3.38550257e-01 2.24510856e+01 7.96858243e-02 1.07181462e+00 7.96858243e-02 1.78817027e+01
1.70533133e+00 1.94324653e+00 1.35689698e-01 1.94324653e+00 4.34781957e+00 1.18666359e+00 1.35689698e-01 1.18666359e+00 -2.31988066e+01
-6.11695340e+01 2.07213624e+00 6.06092398e+00 2.07213624e+00 -5.72666828e+01 1.98051013e+01 6.06092398e+00 1.98051013e+01 -1.36605632e+02
-1.06729408e+02 -3.84191489e+00 1.27859116e+01 -3.84191489e+00 -1.03823997e+02 1.22073202e+01 1.27859116e+01 1.22073202e+01 -2.54164467e+02
-5.88983221e+00 -3.04873610e+00 -3.05454363e+00 -3.04873610e+00 2.21477604e-01 5.14335928e+00 -3.05454363e+00 5.14335928e+00 -3.45298801e+01
4.34044456e+00 -4.35941160e-01 -3.10844123e-01 -4.35941160e-01 6.35705757e+00 7.66851552e-01 -3.10844123e-01 7.66851552e-01 -1.84358597e+01
9.05367851e-01 1.25965155e+00 -1.36860904e+00 1.25965155e+00 -9.31603432e-01 8.51650253e-01 -1.36860904e+00 8.51650253e-01 -2.99867086e+01
2.72900581e+00 -1.82794660e+00 2.25749624e+00 -1.82794660e+00 6.49814034e+00 -1.36232358e+00 2.25749624e+00 -1.36232358e+00 -1.97561455e+01
-2.30626984e+01 -3.58996459e+00 -4.39678770e+00 -3.58996459e+00 -1.79418745e+01 3.86000931e+00 -4.39678770e+00 3.86000931e+00 -7.00816059e+01
-8.98214149e+01 1.22904323e+01 6.74626072e-01 1.22904323e+01 -5.26079699e+01 -3.91779582e+01 6.74626072e-01 -3.91779582e+01 -1.26401883e+02
-1.71005236e+00 -4.14228721e+00 -7.09184694e-01 -4.14228721e+00 -7.40042241e+00 -3.32641085e+00 -7.09184694e-01 -3.32641085e+00 -3.57978929e+01
5.29515317e+00 -3.86288315e-02 1.94563031e-01 -3.86288315e-02 2.91355705e+00 -4.63213492e-03 1.94563031e-01 -4.63213492e-03 -2.10125036e+01
1.77784801e-01 1.24264614e-01 -7.90885724e-02 1.24264614e-01 -1.05066955e+00 7.26797648e-01 -7.90885724e-02 7.26797648e-01 -3.08690314e+01
8.82277224e-01 6.75804624e-01 2.26483647e-01 6.75804624e-01 -8.04355860e-01 3.70987473e-01 2.26483647e-01 3.70987473e-01 -2.98312174e+01
-4.81972337e-01 2.95984417e-01 3.83777790e-01 2.95984417e-01 -3.60993430e+00 -2.95412805e-01 3.83777790e-01 -2.95412805e-01 -3.42656851e+01
-5.68716973e+00 8.15940142e-01 -1.74529243e-01 8.15940142e-01 -3.96685421e+00 7.72969015e-01 -1.74529243e-01 7.72969015e-01 -4.03481095e+01
-6.53424269e+00 1.24063174e+00 4.80711377e-01 1.24063174e+00 -4.85546719e+00 1.51943067e+00 4.80711377e-01 1.51943067e+00 -4.20086654e+01
-6.76987046e+00 2.93051817e-01 5.83341792e-01 2.93051817e-01 -5.07191062e+00 3.90052505e-01 5.83341792e-01 3.90052505e-01 -4.28243823e+01
-1.38345744e+01 5.32132725e-01 7.96611968e-01 5.32132725e-01 -7.58960788e+00 1.81607325e+00 7.96611968e-01 1.81607325e+00 -5.24372517e+01
-4.45938790e+00 -1.28358164e+00 3.75679620e-01 -1.28358164e+00 -2.50606114e+00 5.82968241e-01 3.75679620e-01 5.82968241e-01 -3.74146507e+01
-2.11000484e+00 -7.04508197e-01 -1.08806185e-01 -7.04508197e-01 1.53396636e+00 -9.83480053e-02 -1.08806185e-01 -9.83480053e-02 -3.03749106e+01
5.17817691e+00 -5.26944511e-01 3.71742062e-03 -5.26944511e-01 7.43685564e+00 -5.96090443e-01 3.71742062e-03 -5.96090443e-01 -1.62255087e+01
9.68092054e+00 -1.03195436e+00 -1.68825925e-01 -1.03195436e+00 1.05701289e+01 -1.10358428e-02 -1.68825925e-01 -1.10358428e-02 -8.06267512e+00
6.46107197e-01 4.01922017e-01 8.61487418e-01 4.01922017e-01 5.25226283e+00 -1.34520118e+00 8.61487418e-01 -1.34520118e+00 -2.31018222e+01
-3.83755278e+00 -1.12742206e+00 1.87621027e-01 -1.12742206e+00 -8.05360079e-02 -2.08656254e+00 1.87621027e-01 -2.08656254e+00 -3.35266628e+01
-6.56295921e+00 1.33488370e+00 8.46912310e-01 1.33488370e+00 -1.02363098e+01 1.76407130e+00 8.46912310e-01 1.76407130e+00 -4.77620459e+01
-2.50231361e+00 7.66959369e-01 1.75458301e-01 7.66959369e-01 -6.10757589e+00 -9.19929715e-02 1.75458301e-01 -9.19929715e-02 -3.91331387e+01
-8.93479979e+00 2.86394027e+00 3.27594168e-01 2.86394027e+00 -9.12409890e+00 1.04128196e+00 3.27594168e-01 1.04128196e+00 -4.90739014e+01
6.39322925e+00 1.73053434e+00 -5.59316449e+00 1.73053434e+00 8.41947436e+00 -6.33379692e-01 -5.59316449e+00 -6.33379692e-01 -1.08520191e+01
1.28340721e+01 -2.43417197e-01 -2.43585478e+00 -2.43417197e-01 1.85928570e+01 -7.80520907e-02 -2.43585478e+00 -7.80520907e-02 2.71329171e+00
-1.15138477e+01 -2.86123491e+00 -7.58895612e+00 -2.86123491e+00 -4.45008190e+00 -1.90483531e+00 -7.58895612e+00 -1.90483531e+00 -4.35974483e+01
-6.76359685e+00 -6.12813020e+00 -9.34090900e+00 -6.12813020e+00 -1.00849476e+01 -2.29436417e+00 -9.34090900e+00 -2.29436417e+00 -4.25576859e+01
-2.48018355e+01 2.59317199e-01 4.42896624e+00 2.59317199e-01 -3.36315248e+01 4.38320090e-02 4.42896624e+00 4.38320090e-02 -9.17857167e+01
-2.86782777e+01 -1.40832841e+00 3.82232571e+00 -1.40832841e+00 -3.28178498e+01 -1.70595954e-01 3.82232571e+00 -1.70595954e-01 -9.60973838e+01
1.39278886e+01 2.38455961e+00 -6.54061495e-01 2.38455961e+00 9.64118989e+00 -4.35797905e+00 -6.54061495e-01 -4.35797905e+00 -3.11473101e+00
3.72759190e+01 1.60502601e+00 -2.15237622e+00 1.60502601e+00 3.24882088e+01 1.78779960e-02 -2.15237622e+00 1.78779960e-02 4.35178789e+01
8.16286545e+01 4.27980089e+00 2.65629215e+01 4.27980089e+00 9.95560837e+01 7.05219078e+00 2.65629215e+01 7.05219078e+00 1.28501968e+02
2.14021655e+01 -2.56040258e+00 -5.88433051e-01 -2.56040258e+00 1.51144429e+01 -3.10301224e+00 -5.88433051e-01 -3.10301224e+00 1.73634587e+01
-2.59176502e+01 -4.28107202e-01 8.10140371e-02 -4.28107202e-01 -2.31904082e+01 5.85930978e+00 8.10140371e-02 5.85930978e+00 -8.06879592e+01
2.68434461e+00 9.26832209e-02 -1.72003384e+00 9.26832209e-02 8.90914917e-01 2.91618724e+00 -1.72003384e+00 2.91618724e+00 -2.59941788e+01
-1.08517345e+02 -1.22808137e+01 1.18717616e+01 -1.22808137e+01 -1.59902954e+02 -1.33548687e+01 1.18717616e+01 -1.33548687e+01 -3.06763832e+02
-3.44086658e+01 3.22700200e-01 -1.86387796e+00 3.22700200e-01 -2.95188170e+01 4.89346526e+00 -1.86387796e+00 4.89346526e+00 -9.81657950e+01
-1.34552010e+01 -6.04488015e-01 3.99483757e+00 -6.04488015e-01 -1.04595470e+01 -2.66590633e-01 3.99483757e+00 -2.66590633e-01 -5.56322107e+01
2.14258516e+01 -2.52584100e-01 2.21207808e+00 -2.52584100e-01 1.99348685e+01 1.39896214e-01 2.21207808e+00 1.39896214e-01 1.46217607e+01
1.05742643e+01 4.93727818e-01 4.08579022e-01 4.93727818e-01 9.47819757e+00 -7.13696916e-01 4.08579022e-01 -7.13696916e-01 -8.19210625e+00
-3.28210599e+01 7.77867436e-01 -5.29740930e-01 7.77867436e-01 -4.13707775e+01 -3.71440256e+00 -5.29740930e-01 -3.71440256e+00 -1.08206594e+02
-1.16080631e+01 -1.43982577e+00 -3.27596453e+00 -1.43982577e+00 -2.14574431e+01 6.75868315e+00 -3.27596453e+00 6.75868315e+00 -6.10983599e+01
8.90331709e+00 -1.46426996e+00 -6.08993270e-01 -1.46426996e+00 -9.76295114e+00 6.26512337e+00 -6.08993270e-01 6.26512337e+00 -4.15320413e+01
1.29579902e+01 -1.87412074e+00 2.15543504e+00 -1.87412074e+00 2.13077960e+01 -3.94239184e+00 2.15543504e+00 -3.94239184e+00 8.92181647e+00
9.29007721e+01 -4.34694481e+00 7.06255138e-01 -4.34694481e+00 6.53087234e+01 2.21727962e+01 7.06255138e-01 2.21727962e+01 8.96272202e+01
4.17422218e+01 2.86914277e+00 -3.86131525e-01 2.86914277e+00 3.76620178e+01 5.82624435e+00 -3.86131525e-01 5.82624435e+00 5.53083878e+01
8.95772898e+00 -2.43043283e+00 -2.24468694e+00 -2.43043283e+00 1.00912971e+01 1.11110745e+00 -2.24468694e+00 1.11110745e+00 1.10143052e+01
4.71610844e+00 -4.71242834e+00 -1.85094945e+00 -4.71242834e+00 1.45254505e+01 -3.55167268e+00 -1.85094945e+00 -3.55167268e+00 7.55532058e+00
-1.17387903e+00 -9.46672857e-01 1.53538346e+00 -9.46672857e-01 1.17766547e+00 -1.09640205e+00 1.53538346e+00 -1.09640205e+00 -4.75949854e-01
-9.36822712e-01 1.67726099e-01 9.91903618e-02 1.67726099e-01 -1.10073864e-01 8.11982751e-01 9.91903618e-02 8.11982751e-01 5.74490964e-01
9.35623586e-01 -5.94438076e-01 3.58985364e-01 -5.94438076e-01 -4.67089415e-01 -1.46230757e+00 3.58985364e-01 -1.46230757e+00 -9.41084325e-01
4.16947871e-01 -1.70946789e+00 -1.28077602e+00 -1.70946789e+00 5.39175749e-01 1.31932127e+00 -1.28077602e+00 1.31932127e+00 -1.42865765e+00
7.10125504e+00 2.54435093e+00 1.59792762e+00 2.54435093e+00 -3.00715280e+00 9.82246101e-01 1.59792762e+00 9.82246101e-01 -7.08190726e-01
1.15235605e+00 -4.33569193e-01 -2.49952485e-01 -4.33569193e-01 -5.10685849e+00 8.89650047e-01 -2.49952485e-01 8.89650047e-01 -8.75761227e-01
-3.63302445e+00 9.13720042e-01 6.32459223e-02 9.13720042e-01 9.20145556e-01 -1.52709556e+00 6.32459223e-02 -1.52709556e+00 5.01595706e-01
-5.18724799e+00 -2.33566205e+00 -3.71117582e-01 -2.33566205e+00 2.45060595e+00 -5.98891854e-01 -3.71117582e-01 -5.98891854e-01 3.40713626e+00
2.17855644e+00 -3.54201049e-02 4.20479383e-03 -3.54201049e-02 -8.51333261e-01 3.45036900e-03 4.20479383e-03 3.45036900e-03 -2.84055080e+01
-6.47617698e-01 2.44713366e-01 -1.38655198e-02 2.44713366e-01 -2.25728762e+00 2.71368779e-01 -1.38655198e-02 2.71368779e-01 -3.30964642e+01
1.62178993e+00 8.78484055e-01 2.07435310e-01 8.78484055e-01 -3.61638308e-01 3.35820418e-01 2.07435310e-01 3.35820418e-01 -2.85192577e+01
8.64439964e-01 3.70391048e-01 1.28658216e-01 3.70391048e-01 -2.65373039e+00 -7.18053523e-03 1.28658216e-01 -7.18053523e-03 -3.17387228e+01
-8.76614213e+00 5.91216877e-01 -8.44462262e-03 5.91216877e-01 -6.52064943e+00 1.03993255e+00 -8.44462262e-03 1.03993255e+00 -4.63906536e+01
-6.53803511e+00 1.95060524e+00 2.48619251e-01 1.95060524e+00 -5.38830020e+00 6.40220423e-01 2.48619251e-01 6.40220423e-01 -4.26560895e+01
-1.16667206e+01 1.28485388e+00 2.93084092e-02 1.28485388e+00 -7.61890459e+00 5.50207213e-01 2.93084092e-02 5.50207213e-01 -5.06362371e+01
-2.33069855e+01 1.68631777e+00 1.18670358e+00 1.68631777e+00 -1.41147746e+01 1.97061831e+00 1.18670358e+00 1.97061831e+00 -6.93021560e+01