<VTKFile type="UnstructuredGrid" version="0.1" byte_order="LittleEndian">
<UnstructuredGrid>
<Piece NumberOfPoints="173" NumberOfCells="80">
<Points>
<DataArray type="Float64" NumberOfComponents="3" format="ascii">
 0.00000000e+00  0.00000000e+00  0.00000000e+00
 1.04332626e+00  0.00000000e+00  0.00000000e+00
 1.04628086e+00  1.07838035e+00  0.00000000e+00
 0.00000000e+00  1.07551706e+00  0.00000000e+00
 0.00000000e+00  0.00000000e+00  9.07430828e-01
 1.04257190e+00  0.00000000e+00  9.03868914e-01
 1.04350102e+00  1.07307112e+00  9.08360183e-01
 0.00000000e+00  1.07199645e+00  9.10225272e-01
 2.09097600e+00  0.00000000e+00  0.00000000e+00
 2.09214568e+00  1.08421314e+00  0.00000000e+00
 2.08869052e+00  0.00000000e+00  8.97426307e-01
 2.09102154e+00  1.07639694e+00  9.02607858e-01
 3.13978624e+00  0.00000000e+00  0.00000000e+00
 3.14439511e+00  1.09251750e+00  0.00000000e+00
 3.14540386e+00  0.00000000e+00  8.91577005e-01
 3.13984895e+00  1.07935381e+00  8.92327726e-01
 4.20473719e+00  0.00000000e+00  0.00000000e+00
 4.19247293e+00  1.09861743e+00  0.00000000e+00
 4.20877266e+00  0.00000000e+00  8.83198321e-01
 4.19502163e+00  1.07982576e+00  8.86382222e-01
 5.26785278e+00  0.00000000e+00  0.00000000e+00
 5.25303030e+00  1.10562885e+00  0.00000000e+00
 5.27373981e+00  0.00000000e+00  8.74850988e-01
 5.26270771e+00  1.08281624e+00  8.80380332e-01
 6.33862162e+00  0.00000000e+00  0.00000000e+00
 6.29764080e+00  1.13132143e+00  0.00000000e+00
 6.33513880e+00  0.00000000e+00  8.73436332e-01
 6.32504368e+00  1.10679579e+00  8.68512690e-01
 1.05038667e+00  2.14014459e+00  0.00000000e+00
 0.00000000e+00  2.13786149e+00  0.00000000e+00
 1.04634571e+00  2.13563323e+00  9.19713974e-01
 0.00000000e+00  2.13206315e+00  9.20576513e-01
 2.10022998e+00  2.15216732e+00  0.00000000e+00
 2.09193707e+00  2.14246082e+00  9.18525398e-01
 3.14077449e+00  2.16259480e+00  0.00000000e+00
 3.13433266e+00  2.15049648e+00  9.26899314e-01
 4.17465353e+00  2.18352437e+00  0.00000000e+00
 4.17753172e+00  2.14987040e+00  9.23932731e-01
 5.19709349e+00  2.18477416e+00  0.00000000e+00
 5.21297503e+00  2.15490389e+00  9.28500891e-01
 6.22945595e+00  2.22151494e+00  0.00000000e+00
 6.25593424e+00  2.18916726e+00  9.28686857e-01
 1.05378330e+00  3.17849350e+00  0.00000000e+00
 0.00000000e+00  3.17529774e+00  0.00000000e+00
 1.04835939e+00  3.17965889e+00  9.34178591e-01
 0.00000000e+00  3.17778325e+00  9.35340524e-01
 2.10799170e+00  3.18102336e+00  0.00000000e+00
 2.09829497e+00  3.18223143e+00  9.48025703e-01
 3.13787937e+00  3.18975711e+00  0.00000000e+00
 3.13149118e+00  3.18700552e+00  9.84569311e-01
 4.14434195e+00  3.19667482e+00  0.00000000e+00
 4.13599968e+00  3.18548536e+00  1.00606561e+00
 5.15985823e+00  3.18935156e+00  0.00000000e+00
 5.16172409e+00  3.16910028e+00  1.01478302e+00
 6.16236019e+00  3.22893596e+00  0.00000000e+00
 6.16893959e+00  3.22565031e+00  1.00466728e+00
 1.05618250e+00  4.19944572e+00  0.00000000e+00
 0.00000000e+00  4.20378876e+00  0.00000000e+00
 1.04911363e+00  4.20198154e+00  9.42736745e-01
 0.00000000e+00  4.20725632e+00  9.40855443e-01
 2.10719657e+00  4.19554901e+00  0.00000000e+00
 2.09589386e+00  4.19177961e+00  9.59822774e-01
 3.13292289e+00  4.18968773e+00  0.00000000e+00
 3.12450290e+00  4.18831205e+00  9.92300689e-01
 4.12973213e+00  4.19540882e+00  0.00000000e+00
 4.12934303e+00  4.19540310e+00  9.99972999e-01
 6.12964058e+00  4.19921589e+00  0.00000000e+00
 5.12969589e+00  4.19713306e+00  0.00000000e+00
 6.12976122e+00  4.19924212e+00  9.99726474e-01
 5.12976408e+00  4.19707394e+00  1.00001752e+00
 1.05400717e+00  5.21938848e+00  0.00000000e+00
 0.00000000e+00  5.22909689e+00  0.00000000e+00
 1.05079460e+00  5.22661018e+00  9.40503538e-01
 0.00000000e+00  5.23066711e+00  9.33436632e-01
 2.10518169e+00  5.20261526e+00  0.00000000e+00
 2.08975220e+00  5.20598984e+00  9.53706443e-01
 3.12460780e+00  5.19088268e+00  0.00000000e+00
 3.11812806e+00  5.19478369e+00  9.88555372e-01
 4.12796116e+00  5.19550180e+00  0.00000000e+00
 4.12773085e+00  5.19551754e+00  1.00024390e+00
 5.12781382e+00  5.19723749e+00  0.00000000e+00
 5.12790918e+00  5.19721556e+00  1.00002861e+00
 6.12793303e+00  5.19897270e+00  0.00000000e+00
 6.12795067e+00  5.19890785e+00  1.00000799e+00
 1.06098557e+00  6.25393581e+00  0.00000000e+00
 0.00000000e+00  6.25837374e+00  0.00000000e+00
 1.05479646e+00  6.25502300e+00  9.27899539e-01
 0.00000000e+00  6.26505756e+00  9.21708047e-01
 2.11331034e+00  6.22491646e+00  0.00000000e+00
 2.09279871e+00  6.24348450e+00  9.33744550e-01
 3.12998581e+00  6.20134926e+00  0.00000000e+00
 3.12320185e+00  6.21742439e+00  9.70464945e-01
 4.12726212e+00  6.19613695e+00  0.00000000e+00
 4.12658834e+00  6.19614601e+00  1.00053704e+00
 5.12624836e+00  6.19708872e+00  0.00000000e+00
 5.12636137e+00  6.19717646e+00  9.99966562e-01
 6.12621212e+00  6.19892979e+00  0.00000000e+00
 6.12623978e+00  6.19890070e+00  9.99995112e-01
 0.00000000e+00  0.00000000e+00  1.82245326e+00
 1.04303837e+00  0.00000000e+00  1.81529820e+00
 1.04239273e+00  1.06146133e+00  1.82271516e+00
 0.00000000e+00  1.06226718e+00  1.82369363e+00
 2.09596086e+00  0.00000000e+00  1.80604815e+00
 2.08609366e+00  1.05491388e+00  1.81050265e+00
 3.14897561e+00  0.00000000e+00  1.79401600e+00
 3.14901924e+00  1.05444872e+00  1.79328477e+00
 4.21768999e+00  0.00000000e+00  1.77541804e+00
 4.21216393e+00  1.05493915e+00  1.78729367e+00
 5.28836727e+00  0.00000000e+00  1.76251924e+00
 5.28123617e+00  1.05698442e+00  1.77596855e+00
 6.34473324e+00  0.00000000e+00  1.75688112e+00
 6.35675097e+00  1.06445611e+00  1.76522887e+00
 1.03677821e+00  2.12066984e+00  1.83955908e+00
 0.00000000e+00  2.12709928e+00  1.84469247e+00
 2.08306241e+00  2.11971474e+00  1.83312011e+00
 3.13414860e+00  2.12407017e+00  1.82867503e+00
 4.20220089e+00  2.13882232e+00  1.81042719e+00
 5.27287579e+00  2.14109612e+00  1.81625557e+00
 6.33463526e+00  2.15167689e+00  1.80395699e+00
 1.03226542e+00  3.17494106e+00  1.86742842e+00
 0.00000000e+00  3.17775726e+00  1.87237465e+00
 2.07044172e+00  3.17649627e+00  1.88129389e+00
 3.06303883e+00  3.15222955e+00  2.01016903e+00
 1.03464508e+00  4.21953440e+00  1.89212704e+00
 0.00000000e+00  4.21389532e+00  1.88303912e+00
 2.07628417e+00  4.20060301e+00  1.92121911e+00
 3.09808207e+00  4.16939497e+00  1.96539307e+00
 1.04285657e+00  5.23785305e+00  1.88371480e+00
 0.00000000e+00  5.24517250e+00  1.87662673e+00
 2.07148719e+00  5.22611904e+00  1.90530443e+00
 3.12149954e+00  5.20914936e+00  1.92655599e+00
 1.03762293e+00  6.27958727e+00  1.85387230e+00
 0.00000000e+00  6.27835464e+00  1.84866250e+00
 2.07296562e+00  6.28593779e+00  1.86279547e+00
 3.13187122e+00  6.27352238e+00  1.86574376e+00
 5.12794828e+00  5.19726229e+00  2.00003386e+00
 6.12794828e+00  5.19892502e+00  2.00003195e+00
 6.12628412e+00  6.19893265e+00  1.99998260e+00
 5.12625694e+00  6.19727612e+00  1.99996567e+00
 0.00000000e+00  0.00000000e+00  2.73525858e+00
 1.05029416e+00  0.00000000e+00  2.73327208e+00
 1.05322146e+00  1.05516732e+00  2.73916698e+00
 0.00000000e+00  1.05309021e+00  2.74431133e+00
 2.11160088e+00  0.00000000e+00  2.71928835e+00
 2.09965348e+00  1.04722822e+00  2.72822070e+00
 3.16606665e+00  0.00000000e+00  2.70387602e+00
 3.16717768e+00  1.04254842e+00  2.70760679e+00
 4.23163939e+00  0.00000000e+00  2.69040585e+00
 4.23455763e+00  1.04425728e+00  2.68560314e+00
 5.30070305e+00  0.00000000e+00  2.67389846e+00
 5.30121660e+00  1.04709661e+00  2.67627573e+00
 6.36455345e+00  0.00000000e+00  2.66845798e+00
 6.36413336e+00  1.04778111e+00  2.67028022e+00
 1.03756964e+00  2.10427475e+00  2.76016212e+00
 0.00000000e+00  2.11865091e+00  2.76350665e+00
 2.09927034e+00  2.10614944e+00  2.73855209e+00
 3.15688157e+00  2.11261749e+00  2.69640541e+00
 4.22997522e+00  2.12449265e+00  2.68560171e+00
 5.29598856e+00  2.11717510e+00  2.68773961e+00
 6.35270023e+00  2.12430120e+00  2.68234634e+00
 1.03338873e+00  3.17862463e+00  2.80360627e+00
 0.00000000e+00  3.17538738e+00  2.79970789e+00
 2.08916378e+00  3.15683627e+00  2.77279115e+00
 1.03378546e+00  4.22107077e+00  2.83517385e+00
 0.00000000e+00  4.22924566e+00  2.82811236e+00
 2.07959080e+00  4.22167063e+00  2.86915064e+00
 1.03483415e+00  5.27428675e+00  2.82189322e+00
 0.00000000e+00  5.26803780e+00  2.81778002e+00
 2.07669783e+00  5.27017403e+00  2.83182216e+00
 3.09347057e+00  4.27295399e+00  3.02049875e+00
 3.11713839e+00  5.26154089e+00  2.80998921e+00
 1.03810048e+00  6.31539392e+00  2.78644824e+00
 0.00000000e+00  6.31942749e+00  2.77518582e+00
</DataArray>
</Points>
<PointData Tensors="Stress_Components,Plastic_strain_components" Vevtors="Spatial_displacement,Reaction_force" Scalars="Equivalent_plastic_strain,Stress_Mises,Stress_Max_Principal,Stress_Mid_Principal,Stress_Min_Principal,Stress_Pressure,Stress_Tresca,Stress_Third_Invariant,Plastic_strain_Max_Principal,Plastic_strain_Min_Principal">
<DataArray type="Float32" Name="Stress_Components" NumberOfComponents="9" format="ascii">
-3.17365384e+00 -1.02729211e-02 -1.21712163e-02 -1.02729211e-02 4.62224513e-01 7.72719318e-03 -1.21712163e-02 7.72719318e-03 -3.27189407e+01
-8.84731907e+00 2.14923576e-01 -5.19605353e-03 2.14923576e-01 -4.42881608e+00 -2.49554269e-01 -5.19605353e-03 -2.49554269e-01 -4.40978155e+01
-4.28522575e+00 4.11225442e-01 -3.73235788e-01 4.11225442e-01 -1.60544115e+00 -3.18442255e-01 -3.73235788e-01 -3.18442255e-01 -3.62337200e+01
-5.23092479e+00 9.46875736e-02 -3.83183464e-01 9.46875736e-02 -2.78582311e+00 1.69379814e-02 -3.83183464e-01 1.69379814e-02 -3.85744524e+01
-1.17474663e+00 -6.24490110e-03 -7.58156627e-02 -6.24490110e-03 2.15769666e+00 -2.34889470e-01 -7.58156627e-02 -2.34889470e-01 -2.87460508e+01
-5.96795619e+00 1.24554964e-01 3.53337541e-01 1.24554964e-01 -2.06391186e+00 -5.60104553e-01 3.53337541e-01 -5.60104553e-01 -3.84477301e+01
-2.87200738e+00 3.04611854e-01 -1.31403164e-01 3.04611854e-01 -2.25192875e-01 -3.30698574e-01 -1.31403164e-01 -3.30698574e-01 -3.32190633e+01
-4.47491729e+00 9.94856227e-02 -2.58906763e-01 9.94856227e-02 -1.82506657e+00 1.72714507e-01 -2.58906763e-01 1.72714507e-01 -3.66890771e+01
-1.15183479e+01 1.77394271e-01 -1.70052322e-02 1.77394271e-01 -6.40832138e+00 -4.47749406e-01 -1.70052322e-02 -4.47749406e-01 -4.90627527e+01
-1.27187240e+01 9.25389472e-01 -6.40970342e-01 9.25389472e-01 -8.41719925e+00 -4.63752875e-01 -6.40970342e-01 -4.63752875e-01 -5.25789382e+01
-7.37160242e+00 1.45418243e-01 4.02996816e-01 1.45418243e-01 -3.96168888e+00 -8.72453190e-02 4.02996816e-01 -8.72453190e-02 -4.21320324e+01
-7.22582038e+00 2.51450644e-01 -7.42033094e-01 2.51450644e-01 -3.62706496e+00 -1.14401294e+00 -7.42033094e-01 -1.14401294e+00 -4.14683446e+01
-1.46975009e+01 5.52150756e-01 -7.08287759e-02 5.52150756e-01 -9.59765589e+00 4.10312250e-01 -7.08287759e-02 4.10312250e-01 -5.60111141e+01
-2.05541556e+01 6.08303085e-01 -1.30588524e+00 6.08303085e-01 -1.43298472e+01 -1.16988453e+00 -1.30588524e+00 -1.16988453e+00 -6.73038247e+01
-6.76039219e+00 -5.02308823e-01 -6.04228467e-01 -5.02308823e-01 -4.76542020e+00 -8.18795273e-02 -6.04228467e-01 -8.18795273e-02 -4.24290914e+01
-1.23532588e+01 -4.37428366e-01 -3.34843326e-01 -4.37428366e-01 -7.67711192e+00 -9.12240531e-01 -3.34843326e-01 -9.12240531e-01 -5.13015851e+01
-1.90367687e+01 -1.42461777e+00 -1.03852879e-01 -1.42461777e+00 -1.46598327e+01 1.47790436e-01 -1.03852879e-01 1.47790436e-01 -6.62258186e+01
-2.96320572e+01 -1.30026846e+00 -2.48400508e+00 -1.30026846e+00 -1.83560679e+01 -1.68876398e-01 -2.48400508e+00 -1.68876398e-01 -8.06569228e+01
-8.42234087e+00 -1.36441655e+00 -2.90636778e-01 -1.36441655e+00 -7.17360234e+00 -1.17221944e-01 -2.90636778e-01 -1.17221944e-01 -4.68084915e+01
-1.29747987e-01 -1.00971338e+00 -5.18048977e-01 -1.00971338e+00 1.26528245e+00 2.72952699e-01 -5.18048977e-01 2.72952699e-01 -2.87129962e+01
-1.95852377e+01 -4.90258504e-01 -2.16769554e-01 -4.90258504e-01 -1.31094021e+01 1.13964805e+00 -2.16769554e-01 1.13964805e+00 -6.49518070e+01
-1.25811217e+01 -3.10029717e+00 -2.14462458e+00 -3.10029717e+00 -6.79479301e+00 5.14873981e-01 -2.14462458e+00 5.14873981e-01 -4.97359548e+01
-1.82051802e+00 -5.27429223e-01 -2.57894631e-01 -5.27429223e-01 -6.48254991e-01 1.20667819e+00 -2.57894631e-01 1.20667819e+00 -3.25995684e+01
3.51685899e+00 -1.79486274e+00 -2.21653257e-01 -1.79486274e+00 3.89545573e+00 2.81202242e-01 -2.21653257e-01 2.81202242e-01 -2.17764141e+01
-4.77551727e+01 -4.69896984e+00 -2.19826743e-01 -4.69896984e+00 -3.47134132e+01 5.25334179e-01 -2.19826743e-01 5.25334179e-01 -1.17771835e+02
-6.25976734e+01 -5.17128563e+00 -3.05344820e+00 -5.17128563e+00 -3.75456810e+01 5.22707486e+00 -3.05344820e+00 5.22707486e+00 -1.33275494e+02
-2.67295656e+01 -5.77981368e-01 -1.80033439e+00 -5.77981368e-01 -1.82567211e+01 2.75797567e+00 -1.80033439e+00 2.75797567e+00 -7.77239323e+01
-2.47203066e+01 -1.79397944e+00 -1.07956962e+00 -1.79397944e+00 -1.80460818e+01 2.88512656e+00 -1.07956962e+00 2.88512656e+00 -7.49323804e+01
-1.46358633e+00 8.52873258e-01 -5.20437859e-01 8.52873258e-01 -3.47655392e+00 -3.98424202e-01 -5.20437859e-01 -3.98424202e-01 -3.52011325e+01
2.88380146e-01 1.88356254e-01 -5.24108022e-01 1.88356254e-01 -1.64833212e+00 5.71596762e-03 -5.24108022e-01 5.71596762e-03 -3.13652015e+01
-1.38362712e+00 5.23485497e-01 5.31936113e-02 5.23485497e-01 -1.57276866e+00 -7.41660767e-01 5.31936113e-02 -7.41660767e-01 -3.31614830e+01
1.83229876e+00 2.00456399e-01 8.37495111e-01 2.00456399e-01 1.39578867e+00 4.34512813e-02 8.37495111e-01 4.34512813e-02 -2.64821170e+01
-5.93661582e+00 2.48112254e+00 -8.74311553e-01 2.48112254e+00 -8.48727942e+00 -1.16119612e+00 -8.74311553e-01 -1.16119612e+00 -4.50589130e+01
-4.19350395e+00 1.96528543e+00 1.75605987e+00 1.96528543e+00 -4.95796036e+00 -3.59006405e-01 1.75605987e+00 -3.59006405e-01 -3.89462161e+01
1.92545176e+01 1.42245505e+00 -1.54110572e+00 1.42245505e+00 1.76700981e+01 -5.68664253e-01 -1.54110572e+00 -5.68664253e-01 8.90778500e+00
5.47782094e+00 1.45207201e+00 3.76410905e+00 1.45207201e+00 6.60112122e+00 -2.67805359e-01 3.76410905e+00 -2.67805359e-01 -1.74341025e+01
2.89473233e+01 -9.30215172e-01 -4.64341673e+00 -9.30215172e-01 2.33665602e+01 -2.06111317e-01 -4.64341673e+00 -2.06111317e-01 2.55900345e+01
-1.41867369e+01 -6.76911144e+00 8.68927296e+00 -6.76911144e+00 -1.07239045e+01 5.83953435e-01 8.68927296e+00 5.83953435e-01 -5.15442095e+01
2.85748678e+01 8.81685004e-01 -3.99146866e+00 8.81685004e-01 2.72263123e+01 3.43020614e-01 -3.99146866e+00 3.43020614e-01 2.81030636e+01
-3.92112446e+00 -4.97215923e+00 9.34276855e+00 -4.97215923e+00 -8.93622208e+00 2.65729774e+00 9.34276855e+00 2.65729774e+00 -3.60297283e+01
1.62625599e+01 -5.10116148e+00 -6.85135007e+00 -5.10116148e+00 5.13726425e+00 2.06793529e+00 -6.85135007e+00 2.06793529e+00 -5.60559464e+00
-4.03785782e+01 -1.16636662e+01 1.19646957e+01 -1.16636662e+01 -3.16711909e+01 5.89611030e+00 1.19646957e+01 5.89611030e+00 -9.80072606e+01
2.50114977e-01 6.23496212e-01 1.86114196e-01 6.23496212e-01 -8.63080037e+00 -8.22217658e-01 1.86114196e-01 -8.22217658e-01 -3.78225633e+01
6.95749497e+00 2.73378119e-01 2.99123675e-01 2.73378119e-01 2.35674047e+00 4.54387628e-04 2.99123675e-01 4.54387628e-04 -1.95071688e+01
2.91838229e+00 1.11032800e-01 1.02449214e+00 1.11032800e-01 -3.79334414e+00 -6.27293020e-01 1.02449214e+00 -6.27293020e-01 -3.01566953e+01
7.27491161e+00 1.00356851e-01 8.50966528e-01 1.00356851e-01 4.41818118e+00 -3.33243305e-01 8.50966528e-01 -3.33243305e-01 -1.70999758e+01
1.73935480e+01 -1.09839655e-01 -8.74220468e-02 -1.09839655e-01 9.74773216e+00 -1.07686266e+00 -8.74220468e-02 -1.07686266e+00 1.16266727e-01
1.49035722e+01 -1.42359316e-01 1.10162184e+00 -1.42359316e-01 4.99887955e+00 1.53558579e+00 1.10162184e+00 1.53558579e+00 -7.95279554e+00
3.04306164e+01 -4.89117868e-01 8.85935873e-02 -4.89117868e-01 2.91173114e+01 -2.27519637e+00 8.85935873e-02 -2.27519637e+00 3.28995619e+01
2.92007260e+01 -1.62291991e+00 -2.59731402e-01 -1.62291991e+00 2.58077100e+01 2.92886868e+00 -2.59731402e-01 2.92886868e+00 3.06639811e+01
2.38591293e+01 -2.64991201e+00 -1.84843461e-01 -2.64991201e+00 2.20868869e+01 -2.62670994e+00 -1.84843461e-01 -2.62670994e+00 2.99694862e+01
3.19738770e+01 7.15744336e-01 -1.01780135e+01 7.15744336e-01 3.30198275e+01 3.93465197e+00 -1.01780135e+01 3.93465197e+00 5.14199622e+01
3.40914548e+01 -8.31490397e-01 3.46858664e+00 -8.31490397e-01 3.54459476e+01 -4.33438749e-01 3.46858664e+00 -4.33438749e-01 3.54042657e+01
2.75398486e+01 4.82052358e+00 -9.41792901e+00 4.82052358e+00 3.57417091e+01 -1.19156067e+00 -9.41792901e+00 -1.19156067e+00 4.50488847e+01
1.81026707e+01 3.47934794e+00 -4.48939562e-01 3.47934794e+00 7.64799213e+00 1.42657632e+00 -4.48939562e-01 1.42657632e+00 3.04477060e+01
4.27901220e+01 1.01665444e+01 -5.32368636e+00 1.01665444e+01 3.07269681e+01 -1.78242296e+00 -5.32368636e+00 -1.78242296e+00 5.89935179e+01
3.10416278e+00 -7.95762829e-01 2.03159511e-01 -7.95762829e-01 -8.10776329e+00 -1.18966472e+00 2.03159511e-01 -1.18966472e+00 -3.33479359e+01
2.71575916e+00 -8.20598751e-01 2.82773353e-01 -8.20598751e-01 -5.14575100e+00 -4.83985059e-02 2.82773353e-01 -4.83985059e-02 -3.15609407e+01
8.32699496e+00 -1.14797238e+00 1.41880942e+00 -1.14797238e+00 1.68362477e+00 3.03351693e-02 1.41880942e+00 3.03351693e-02 -1.78656034e+01
5.49602735e+00 -6.75264396e-01 2.81116769e-01 -6.75264396e-01 4.59280208e-01 -1.32799894e-01 2.81116769e-01 -1.32799894e-01 -2.30739224e+01
1.53023843e+01 -2.27736226e+00 -9.55442242e-01 -2.27736226e+00 9.17573297e+00 -2.22053158e+00 -9.55442242e-01 -2.22053158e+00 -2.01115656e+00
1.82864784e+01 -1.08632854e+00 -7.73380436e-01 -1.08632854e+00 1.33626847e+01 2.81028710e+00 -7.73380436e-01 2.81028710e+00 6.64957082e+00
1.94677693e+01 -3.17724213e-01 4.66925509e-01 -3.17724213e-01 2.48499050e+01 -2.90889323e+00 4.66925509e-01 -2.90889323e+00 1.91906774e+01
2.87348857e+01 7.77148003e-01 -3.87152289e-01 7.77148003e-01 3.35062669e+01 -2.12208486e+00 -3.87152289e-01 -2.12208486e+00 3.42888810e+01
2.01114890e+01 1.53141185e+00 7.01352889e-01 1.53141185e+00 2.44271568e+01 -2.24587475e+00 7.01352889e-01 -2.24587475e+00 2.46734034e+01
1.38722445e+01 3.22413721e+00 7.79189418e-02 3.22413721e+00 1.00424877e+01 2.32678827e+00 7.79189418e-02 2.32678827e+00 3.29791077e+00
-9.67217577e+00 -7.30594444e+00 1.72304824e-01 -7.30594444e+00 -3.02436204e+01 1.39728087e+00 1.72304824e-01 1.39728087e+00 -1.41404533e+01
1.20682004e+01 2.04169663e+00 -8.41002335e-01 2.04169663e+00 1.79259199e+01 9.81774516e-01 -8.41002335e-01 9.81774516e-01 1.42288431e+01
8.59487772e-01 -5.82227778e+00 1.41386735e+00 -5.82227778e+00 -2.05938172e+01 -1.84534671e+00 1.41386735e+00 -1.84534671e+00 -4.88179862e+00
2.54111226e+00 -2.60311675e+00 -2.51979069e+00 -2.60311675e+00 8.95899574e+00 -8.09482232e-01 -2.51979069e+00 -8.09482232e-01 -2.93815126e+00
3.91760994e+00 -2.18319797e+00 1.12580031e+00 -2.18319797e+00 -5.18763342e+00 -3.84572601e-01 1.12580031e+00 -3.84572601e-01 -2.95078492e+01
1.76103973e+00 -1.50980133e+00 4.45183381e-01 -1.50980133e+00 -6.35758924e+00 -1.12531241e-02 4.45183381e-01 -1.12531241e-02 -3.37798359e+01
9.98382217e+00 -1.35748653e+00 7.87421748e-01 -1.35748653e+00 5.88299760e+00 2.96356089e-01 7.87421748e-01 2.96356089e-01 -1.20975348e+01
4.77484870e+00 -7.12587796e-01 -1.64890662e-04 -7.12587796e-01 -1.51125932e+00 7.81093352e-01 -1.64890662e-04 7.81093352e-01 -2.56214923e+01
1.44345295e+01 -2.30970297e+00 4.49260589e-01 -2.30970297e+00 8.77861702e+00 -2.65249524e+00 4.49260589e-01 -2.65249524e+00 -3.06146669e+00
9.58441848e+00 -2.34086865e+00 -7.22701151e-01 -2.34086865e+00 5.68170674e+00 2.57931168e+00 -7.22701151e-01 2.57931168e+00 -1.17290721e+01
1.52320951e+01 2.25784717e+00 2.69177147e+00 2.25784717e+00 1.43293570e+01 -1.58035803e+00 2.69177147e+00 -1.58035803e+00 2.37480211e+00
1.53853517e+01 -1.89467532e+00 -1.36011366e+00 -1.89467532e+00 1.29986200e+01 3.28794665e+00 -1.36011366e+00 3.28794665e+00 3.18050067e+00
1.44899862e+01 2.84922096e+00 -2.48964939e-01 2.84922096e+00 1.92408226e+01 -2.03330887e+00 -2.48964939e-01 -2.03330887e+00 2.11640114e+01
1.25124354e+01 2.90695640e+00 3.26992434e+00 2.90695640e+00 7.17551088e+00 -5.47995776e-01 3.26992434e+00 -5.47995776e-01 7.67569900e+00
-1.33864641e-01 7.60127723e-01 -3.73712935e-01 7.60127723e-01 2.44580656e+00 1.74160194e+00 -3.73712935e-01 1.74160194e+00 4.40753494e+00
3.40490929e+00 5.92443895e-01 -7.91400361e-01 5.92443895e-01 9.34979659e-01 -6.58826089e-01 -7.91400361e-01 -6.58826089e-01 2.86072266e-01
2.92530322e+00 4.52530116e-01 -1.35984808e+00 4.52530116e-01 -7.99199200e+00 3.71378899e-01 -1.35984808e+00 3.71378899e-01 -1.76822686e+00
9.70462084e-01 -1.08003542e+00 9.87686416e-01 -1.08003542e+00 -5.60094539e+00 -2.16498338e-01 9.87686416e-01 -2.16498338e-01 -2.69509579e-01
-2.10140562e+01 -2.73061587e+00 1.26891586e+00 -2.73061587e+00 -3.18048191e+01 -1.40989971e+00 1.26891586e+00 -1.40989971e+00 -8.56794701e+01
-1.86146297e+01 -1.21106279e+00 1.62318289e+00 -1.21106279e+00 -3.32753601e+01 -3.61892879e-02 1.62318289e+00 -3.61892879e-02 -8.42268753e+01
-9.36390565e+00 -1.50995308e+00 1.40943229e-02 -1.50995308e+00 -1.62139333e+01 -1.02382486e+00 1.40943229e-02 -1.02382486e+00 -5.69429874e+01
-1.93437500e+01 -1.53438276e+00 1.66169465e-01 -1.53438276e+00 -2.96394300e+01 9.26497579e-01 1.66169465e-01 9.26497579e-01 -8.20041809e+01
-3.05023379e+01 -6.62436843e+00 5.87935257e+00 -6.62436843e+00 -3.96712561e+01 -5.69670928e+00 5.87935257e+00 -5.69670928e+00 -1.02656765e+02
-1.61822370e+01 -4.24147440e+00 4.10887331e-01 -4.24147440e+00 -1.62638627e+01 2.54480168e-01 4.10887331e-01 2.54480168e-01 -6.42794752e+01
2.71058083e+00 6.11395836e-01 5.30544007e+00 6.11395836e-01 1.59920902e+01 -2.94216830e+00 5.30544007e+00 -2.94216830e+00 -8.42862320e+00
-3.85536620e+01 -9.27581521e+00 4.73442892e-01 -9.27581521e+00 -3.30863419e+01 1.24676303e+01 4.73442892e-01 1.24676303e+01 -1.02235313e+02
2.20437055e+01 2.40732598e+00 -1.14385677e+00 2.40732598e+00 3.19889669e+01 -5.23973036e+00 -1.14385677e+00 -5.23973036e+00 4.13715348e+01
-1.48338511e+01 -9.95738292e+00 1.94132081e+00 -9.95738292e+00 -1.42430613e+01 8.47385740e+00 1.94132081e+00 8.47385740e+00 -1.67964964e+01
-5.36738452e+00 -9.36740398e-01 1.35397881e+00 -9.36740398e-01 2.19512844e+00 1.84633541e+00 1.35397881e+00 1.84633541e+00 5.41457445e+00
-3.62489541e+00 -5.82772732e-01 7.12107937e-01 -5.82772732e-01 2.88657402e+00 -2.63943179e+00 7.12107937e-01 -2.63943179e+00 3.61006589e+00
-1.89840162e+00 2.49989796e+00 -6.04315460e-01 2.49989796e+00 -2.16914558e+00 5.83589971e-01 -6.04315460e-01 5.83589971e-01 -6.31047368e-01
-4.08335161e+00 2.74613246e-01 -2.25497082e-01 2.74613246e-01 6.80240139e-01 1.38779730e+00 -2.25497082e-01 1.38779730e+00 5.38614163e-01
-1.74939966e+00 2.67299358e-03 -1.73985232e-01 2.67299358e-03 1.13907862e+00 -4.07284394e-01 -1.73985232e-01 -4.07284394e-01 -3.05296712e+01
-3.69580172e-01 8.30655787e-02 4.56456065e-01 8.30655787e-02 1.44981986e+00 -4.03823121e-01 4.56456065e-01 -4.03823121e-01 -2.87590194e+01
2.58007434e+00 -2.01739055e-01 -1.28212257e-02 -2.01739055e-01 4.64224778e+00 2.05030037e-01 -1.28212257e-02 2.05030037e-01 -2.20921696e+01
-2.24319947e+00 -3.18997540e-04 -2.10240468e-01 -3.18997540e-04 8.43660504e-01 1.87742984e-01 -2.10240468e-01 1.87742984e-01 -3.13395619e+01
5.08365130e+00 -7.85372108e-01 4.86703120e-01 -7.85372108e-01 5.09888843e+00 3.20704382e-01 4.86703120e-01 3.20704382e-01 -1.89683671e+01
3.87461530e+00 -3.92498447e-01 -3.50834677e-01 -3.92498447e-01 5.01791498e+00 -8.00485135e-01 -3.50834677e-01 -8.00485135e-01 -2.02056198e+01
3.17729044e+00 -3.60099496e-02 -3.26594833e-01 -3.60099496e-02 2.88251865e+00 5.66001423e-02 -3.26594833e-01 5.66001423e-02 -2.34409190e+01
6.74665409e+00 -3.21209786e-01 -5.60673393e-01 -3.21209786e-01 6.18171674e+00 -4.31987671e-01 -5.60673393e-01 -4.31987671e-01 -1.59859706e+01
4.16328371e+00 -2.93106478e-01 1.01643856e-01 -2.93106478e-01 2.54617232e+00 -2.10985892e-01 1.01643856e-01 -2.10985892e-01 -2.27222764e+01
5.29271960e+00 -5.50768062e-01 -2.51356542e-01 -5.50768062e-01 5.05613136e+00 7.44927026e-01 -2.51356542e-01 7.44927026e-01 -1.87188461e+01
1.04017802e+01 -5.00319608e-01 6.10554181e-02 -5.00319608e-01 9.19917965e+00 5.49751766e-01 6.10554181e-02 5.49751766e-01 -8.73570716e+00
4.80325264e+00 -4.11379792e-01 8.66867602e-03 -4.11379792e-01 3.76879805e+00 6.12128449e-01 8.66867602e-03 6.12128449e-01 -2.07260916e+01
8.46483302e+00 4.38752055e-01 -2.44367287e-01 4.38752055e-01 9.29635525e+00 1.66243207e+00 -2.44367287e-01 1.66243207e+00 -1.05870161e+01
4.54871130e+00 2.68548220e-01 -9.66844339e-01 2.68548220e-01 3.79115820e+00 1.00348012e+00 -9.66844339e-01 1.00348012e+00 -2.08202901e+01
5.68958744e+00 -4.49175289e-01 2.90895721e-01 -4.49175289e-01 6.96061522e+00 -7.97559147e-01 2.90895721e-01 -7.97559147e-01 -1.62235745e+01
-1.31479436e+00 -5.27011052e-01 1.37723954e+00 -5.27011052e-01 1.10653810e+00 9.24864027e-03 1.37723954e+00 9.24864027e-03 -2.99731057e+01
-9.44841831e+00 -2.27207303e-01 -2.67086485e-01 -2.27207303e-01 -5.63731588e+00 -1.11563691e-01 -2.67086485e-01 -1.11563691e-01 -4.91325563e+01
-6.21013657e+01 -8.66884547e+00 1.79278856e+01 -8.66884547e+00 -6.30142470e+01 6.96879482e-01 1.79278856e+01 6.96879482e-01 -1.45522784e+02
-4.32618141e+01 -6.75942178e-01 8.07495400e-01 -6.75942178e-01 -3.89234734e+01 2.51992616e+00 8.07495400e-01 2.51992616e+00 -1.18685541e+02
-4.02840097e+01 -1.42125142e+00 2.73223680e+00 -1.42125142e+00 -3.34791918e+01 5.09496325e+00 2.73223680e+00 5.09496325e+00 -1.08337076e+02
-4.66510620e+01 -4.33160019e+00 2.38521153e+00 -4.33160019e+00 -3.60096092e+01 6.51379871e+00 2.38521153e+00 6.51379871e+00 -1.16606861e+02
1.41677507e+01 -3.27695841e-02 8.27452876e-01 -3.27695841e-02 1.55928050e+01 -9.57792750e-01 8.27452876e-01 -9.57792750e-01 2.04876041e+00
1.13177561e+01 -2.41489758e-01 1.01458938e+00 -2.41489758e-01 1.12302278e+01 7.36221736e-02 1.01458938e+00 7.36221736e-02 -5.50593901e+00
-3.56686727e+01 -1.98942852e+00 5.92731897e+00 -1.98942852e+00 -3.10031462e+01 1.27883539e+01 5.92731897e+00 1.27883539e+01 -8.61571388e+01
5.49834442e+01 5.06788731e+00 -1.35257821e+01 5.06788731e+00 5.50295639e+01 -5.27575396e+00 -1.35257821e+01 -5.27575396e+00 8.46016197e+01
1.49792493e+01 -3.88231372e-01 1.85209910e+00 -3.88231372e-01 1.31735659e+01 5.57863217e-01 1.85209910e+00 5.57863217e-01 1.44044971e+00
1.56320012e+01 8.29804257e-01 2.02604461e-01 8.29804257e-01 1.54483370e+01 4.99035331e-01 2.02604461e-01 4.99035331e-01 3.61144221e+00
3.08182030e+01 -1.62741653e+00 -2.60107622e-01 -1.62741653e+00 2.90405414e+01 -9.21748493e-01 -2.60107622e-01 -9.21748493e-01 3.19834106e+01
2.50135368e+01 -6.77439849e-01 -4.78096811e+00 -6.77439849e-01 2.64489883e+01 -1.78171496e-01 -4.78096811e+00 -1.78171496e-01 2.56804272e+01
1.71248482e+01 2.78663710e-02 1.96796753e-01 2.78663710e-02 1.42525195e+01 6.16546022e-02 1.96796753e-01 6.16546022e-02 4.13078070e+00
1.10129293e+01 -7.11303987e-01 4.69937749e-01 -7.11303987e-01 8.91813672e+00 4.33700973e-01 4.69937749e-01 4.33700973e-01 -8.29135990e+00
5.10821348e+00 -2.78600945e+00 9.02214845e-01 -2.78600945e+00 4.36588752e+00 2.44581473e+00 9.02214845e-01 2.44581473e+00 -1.73795504e+01
-2.15790066e+01 -1.90924092e+00 -2.67844673e-01 -1.90924092e+00 -1.97477825e+01 6.20419905e+00 -2.67844673e-01 6.20419905e+00 -7.68965317e+01
-2.67124957e+00 -8.63836363e-01 -2.40344070e-02 -8.63836363e-01 -3.13806349e+00 -6.27939301e-02 -2.40344070e-02 -6.27939301e-02 -3.63670053e+01
-4.99471211e+00 -5.88433176e-01 -3.09780240e-01 -5.88433176e-01 -8.12608671e+00 1.53645325e+00 -3.09780240e-01 1.53645325e+00 -4.39731445e+01
-1.16468763e+01 -3.41920264e-01 1.36925784e+00 -3.41920264e-01 -5.18738651e+00 -2.71972811e+00 1.36925784e+00 -2.71972811e+00 -4.76075172e+01
-8.89002533e+01 -3.99425709e+00 -6.26799178e+00 -3.99425709e+00 -8.33795128e+01 4.81763721e+00 -6.26799178e+00 4.81763721e+00 -2.16366417e+02
-2.39581622e-01 -6.01176828e-01 -2.70406500e-01 -6.01176828e-01 3.11623229e-01 2.66514026e-01 -2.70406500e-01 2.66514026e-01 -4.55580443e-01
-4.31192994e-01 -4.10055108e-02 -9.47630405e-02 -4.10055108e-02 -1.12574011e-01 -2.38231108e-01 -9.47630405e-02 -2.38231108e-01 1.60352685e-01
6.95520371e-01 -1.57246053e-01 -1.20170746e-01 -1.57246053e-01 -1.06318593e-01 5.80173381e-01 -1.20170746e-01 5.80173381e-01 -9.72671747e-01
3.79301988e-01 -7.17626899e-01 2.28425264e-02 -7.17626899e-01 -1.89918200e-01 -5.19447774e-01 2.28425264e-02 -5.19447774e-01 -5.72971366e-01
1.25085235e+00 3.86352781e-02 1.69982575e-01 3.86352781e-02 2.01349068e+00 -1.97007088e-02 1.69982575e-01 -1.97007088e-02 -2.64945450e+01
1.95506603e+00 4.66457799e-01 4.76194370e-02 4.66457799e-01 1.92778400e+00 2.84023933e-01 4.76194370e-02 2.84023933e-01 -2.57666129e+01
6.32254275e+00 -2.14322569e-01 6.54159468e-02 -2.14322569e-01 6.91660067e+00 4.60464826e-01 6.54159468e-02 4.60464826e-01 -1.56423153e+01
1.76322621e+00 1.91319477e-01 1.71561800e-01 1.91319477e-01 3.18680471e+00 -2.05400027e-01 1.71561800e-01 -2.05400027e-01 -2.46234578e+01
6.96556580e+00 -8.11035082e-01 1.66082937e-01 -8.11035082e-01 6.21077740e+00 -4.99203708e-02 1.66082937e-01 -4.99203708e-02 -1.57270823e+01
6.04011810e+00 -5.08943253e-01 8.39854317e-01 -5.08943253e-01 6.00628060e+00 8.96762914e-01 8.39854317e-01 8.96762914e-01 -1.67421872e+01
6.64918581e+00 1.30523110e-01 2.74777465e-01 1.30523110e-01 5.64856589e+00 6.26818459e-01 2.74777465e-01 6.26818459e-01 -1.66052151e+01
1.12683017e+01 -4.75560669e-02 5.88377066e-02 -4.75560669e-02 9.80005041e+00 -5.56515551e-02 5.88377066e-02 -5.56515551e-02 -7.20861292e+00
9.15591292e+00 1.05872719e-01 -1.63654750e-01 1.05872719e-01 7.19390196e+00 4.63876354e-01 -1.63654750e-01 4.63876354e-01 -1.21893312e+01
5.60027862e+00 2.05892297e-02 -4.78691017e-01 2.05892297e-02 3.48081553e+00 1.11348753e-01 -4.78691017e-01 1.11348753e-01 -2.00828686e+01
1.23792619e+01 -1.89473948e-01 -2.54941513e-02 -1.89473948e-01 1.07724009e+01 1.61445588e-02 -2.54941513e-02 1.61445588e-02 -4.87332731e+00